+ 0.2 0 1 cbr 500 ------- 0 0.0 2.0 0 0
- 0.2 0 1 cbr 500 ------- 0 0.0 2.0 0 0
+ 0.205 0 1 cbr 500 ------- 0 0.0 2.0 1 1
- 0.205 0 1 cbr 500 ------- 0 0.0 2.0 1 1
+ 0.21 0 1 cbr 500 ------- 0 0.0 2.0 2 2
- 0.21 0 1 cbr 500 ------- 0 0.0 2.0 2 2
+ 0.215 0 1 cbr 500 ------- 0 0.0 2.0 3 3
- 0.215 0 1 cbr 500 ------- 0 0.0 2.0 3 3
+ 0.22 0 1 cbr 500 ------- 0 0.0 2.0 4 4
- 0.22 0 1 cbr 500 ------- 0 0.0 2.0 4 4
r 0.224 0 1 cbr 500 ------- 0 0.0 2.0 0 0
+ 0.224 1 2 cbr 500 ------- 0 0.0 2.0 0 0
- 0.224 1 2 cbr 500 ------- 0 0.0 2.0 0 0
+ 0.225 0 1 cbr 500 ------- 0 0.0 2.0 5 5
- 0.225 0 1 cbr 500 ------- 0 0.0 2.0 5 5
r 0.229 0 1 cbr 500 ------- 0 0.0 2.0 1 1
+ 0.229 1 2 cbr 500 ------- 0 0.0 2.0 1 1
+ 0.23 0 1 cbr 500 ------- 0 0.0 2.0 6 6
- 0.23 0 1 cbr 500 ------- 0 0.0 2.0 6 6
- 0.231813 1 2 cbr 500 ------- 0 0.0 2.0 1 1
r 0.234 0 1 cbr 500 ------- 0 0.0 2.0 2 2
+ 0.234 1 2 cbr 500 ------- 0 0.0 2.0 2 2
+ 0.235 0 1 cbr 500 ------- 0 0.0 2.0 7 7
- 0.235 0 1 cbr 500 ------- 0 0.0 2.0 7 7
r 0.239 0 1 cbr 500 ------- 0 0.0 2.0 3 3
+ 0.239 1 2 cbr 500 ------- 0 0.0 2.0 3 3
- 0.239625 1 2 cbr 500 ------- 0 0.0 2.0 2 2
+ 0.24 0 1 cbr 500 ------- 0 0.0 2.0 8 8
- 0.24 0 1 cbr 500 ------- 0 0.0 2.0 8 8
r 0.244 0 1 cbr 500 ------- 0 0.0 2.0 4 4
+ 0.244 1 2 cbr 500 ------- 0 0.0 2.0 4 4
+ 0.245 0 1 cbr 500 ------- 0 0.0 2.0 9 9
- 0.245 0 1 cbr 500 ------- 0 0.0 2.0 9 9
- 0.247438 1 2 cbr 500 ------- 0 0.0 2.0 3 3
r 0.249 0 1 cbr 500 ------- 0 0.0 2.0 5 5
+ 0.249 1 2 cbr 500 ------- 0 0.0 2.0 5 5
+ 0.25 0 1 cbr 500 ------- 0 0.0 2.0 10 10
- 0.25 0 1 cbr 500 ------- 0 0.0 2.0 10 10
r 0.251813 1 2 cbr 500 ------- 0 0.0 2.0 0 0
r 0.254 0 1 cbr 500 ------- 0 0.0 2.0 6 6
+ 0.254 1 2 cbr 500 ------- 0 0.0 2.0 6 6
+ 0.255 0 1 cbr 500 ------- 0 0.0 2.0 11 11
- 0.255 0 1 cbr 500 ------- 0 0.0 2.0 11 11
- 0.25525 1 2 cbr 500 ------- 0 0.0 2.0 4 4
r 0.259 0 1 cbr 500 ------- 0 0.0 2.0 7 7
+ 0.259 1 2 cbr 500 ------- 0 0.0 2.0 7 7
r 0.259625 1 2 cbr 500 ------- 0 0.0 2.0 1 1
+ 0.26 0 1 cbr 500 ------- 0 0.0 2.0 12 12
- 0.26 0 1 cbr 500 ------- 0 0.0 2.0 12 12
- 0.263063 1 2 cbr 500 ------- 0 0.0 2.0 5 5
r 0.264 0 1 cbr 500 ------- 0 0.0 2.0 8 8
+ 0.264 1 2 cbr 500 ------- 0 0.0 2.0 8 8
+ 0.265 0 1 cbr 500 ------- 0 0.0 2.0 13 13
- 0.265 0 1 cbr 500 ------- 0 0.0 2.0 13 13
r 0.267438 1 2 cbr 500 ------- 0 0.0 2.0 2 2
r 0.269 0 1 cbr 500 ------- 0 0.0 2.0 9 9
+ 0.269 1 2 cbr 500 ------- 0 0.0 2.0 9 9
+ 0.27 0 1 cbr 500 ------- 0 0.0 2.0 14 14
- 0.27 0 1 cbr 500 ------- 0 0.0 2.0 14 14
- 0.270875 1 2 cbr 500 ------- 0 0.0 2.0 6 6
r 0.274 0 1 cbr 500 ------- 0 0.0 2.0 10 10
+ 0.274 1 2 cbr 500 ------- 0 0.0 2.0 10 10
+ 0.275 0 1 cbr 500 ------- 0 0.0 2.0 15 15
- 0.275 0 1 cbr 500 ------- 0 0.0 2.0 15 15
r 0.27525 1 2 cbr 500 ------- 0 0.0 2.0 3 3
- 0.278688 1 2 cbr 500 ------- 0 0.0 2.0 7 7
r 0.279 0 1 cbr 500 ------- 0 0.0 2.0 11 11
+ 0.279 1 2 cbr 500 ------- 0 0.0 2.0 11 11
+ 0.28 0 1 cbr 500 ------- 0 0.0 2.0 16 16
- 0.28 0 1 cbr 500 ------- 0 0.0 2.0 16 16
r 0.283063 1 2 cbr 500 ------- 0 0.0 2.0 4 4
r 0.284 0 1 cbr 500 ------- 0 0.0 2.0 12 12
+ 0.284 1 2 cbr 500 ------- 0 0.0 2.0 12 12
d 0.284 1 2 cbr 500 ------- 0 0.0 2.0 12 12
+ 0.285 0 1 cbr 500 ------- 0 0.0 2.0 17 17
- 0.285 0 1 cbr 500 ------- 0 0.0 2.0 17 17
- 0.2865 1 2 cbr 500 ------- 0 0.0 2.0 8 8
r 0.289 0 1 cbr 500 ------- 0 0.0 2.0 13 13
+ 0.289 1 2 cbr 500 ------- 0 0.0 2.0 13 13
+ 0.29 0 1 cbr 500 ------- 0 0.0 2.0 18 18
- 0.29 0 1 cbr 500 ------- 0 0.0 2.0 18 18
r 0.290875 1 2 cbr 500 ------- 0 0.0 2.0 5 5
r 0.294 0 1 cbr 500 ------- 0 0.0 2.0 14 14
+ 0.294 1 2 cbr 500 ------- 0 0.0 2.0 14 14
d 0.294 1 2 cbr 500 ------- 0 0.0 2.0 14 14
- 0.294313 1 2 cbr 500 ------- 0 0.0 2.0 9 9
+ 0.295 0 1 cbr 500 ------- 0 0.0 2.0 19 19
- 0.295 0 1 cbr 500 ------- 0 0.0 2.0 19 19
r 0.298688 1 2 cbr 500 ------- 0 0.0 2.0 6 6
r 0.299 0 1 cbr 500 ------- 0 0.0 2.0 15 15
+ 0.299 1 2 cbr 500 ------- 0 0.0 2.0 15 15
+ 0.3 0 1 cbr 500 ------- 0 0.0 2.0 20 20
- 0.3 0 1 cbr 500 ------- 0 0.0 2.0 20 20
- 0.302125 1 2 cbr 500 ------- 0 0.0 2.0 10 10
r 0.304 0 1 cbr 500 ------- 0 0.0 2.0 16 16
+ 0.304 1 2 cbr 500 ------- 0 0.0 2.0 16 16
+ 0.305 0 1 cbr 500 ------- 0 0.0 2.0 21 21
- 0.305 0 1 cbr 500 ------- 0 0.0 2.0 21 21
r 0.3065 1 2 cbr 500 ------- 0 0.0 2.0 7 7
r 0.309 0 1 cbr 500 ------- 0 0.0 2.0 17 17
+ 0.309 1 2 cbr 500 ------- 0 0.0 2.0 17 17
d 0.309 1 2 cbr 500 ------- 0 0.0 2.0 17 17
- 0.309938 1 2 cbr 500 ------- 0 0.0 2.0 11 11
+ 0.31 0 1 cbr 500 ------- 0 0.0 2.0 22 22
- 0.31 0 1 cbr 500 ------- 0 0.0 2.0 22 22
r 0.314 0 1 cbr 500 ------- 0 0.0 2.0 18 18
+ 0.314 1 2 cbr 500 ------- 0 0.0 2.0 18 18
r 0.314313 1 2 cbr 500 ------- 0 0.0 2.0 8 8
+ 0.315 0 1 cbr 500 ------- 0 0.0 2.0 23 23
- 0.315 0 1 cbr 500 ------- 0 0.0 2.0 23 23
- 0.31775 1 2 cbr 500 ------- 0 0.0 2.0 13 13
r 0.319 0 1 cbr 500 ------- 0 0.0 2.0 19 19
+ 0.319 1 2 cbr 500 ------- 0 0.0 2.0 19 19
+ 0.32 0 1 cbr 500 ------- 0 0.0 2.0 24 24
- 0.32 0 1 cbr 500 ------- 0 0.0 2.0 24 24
r 0.322125 1 2 cbr 500 ------- 0 0.0 2.0 9 9
r 0.324 0 1 cbr 500 ------- 0 0.0 2.0 20 20
+ 0.324 1 2 cbr 500 ------- 0 0.0 2.0 20 20
d 0.324 1 2 cbr 500 ------- 0 0.0 2.0 20 20
+ 0.325 0 1 cbr 500 ------- 0 0.0 2.0 25 25
- 0.325 0 1 cbr 500 ------- 0 0.0 2.0 25 25
- 0.325563 1 2 cbr 500 ------- 0 0.0 2.0 15 15
r 0.329 0 1 cbr 500 ------- 0 0.0 2.0 21 21
+ 0.329 1 2 cbr 500 ------- 0 0.0 2.0 21 21
r 0.329938 1 2 cbr 500 ------- 0 0.0 2.0 10 10
+ 0.33 0 1 cbr 500 ------- 0 0.0 2.0 26 26
- 0.33 0 1 cbr 500 ------- 0 0.0 2.0 26 26
- 0.333375 1 2 cbr 500 ------- 0 0.0 2.0 16 16
r 0.334 0 1 cbr 500 ------- 0 0.0 2.0 22 22
+ 0.334 1 2 cbr 500 ------- 0 0.0 2.0 22 22
+ 0.335 0 1 cbr 500 ------- 0 0.0 2.0 27 27
- 0.335 0 1 cbr 500 ------- 0 0.0 2.0 27 27
r 0.33775 1 2 cbr 500 ------- 0 0.0 2.0 11 11
r 0.339 0 1 cbr 500 ------- 0 0.0 2.0 23 23
+ 0.339 1 2 cbr 500 ------- 0 0.0 2.0 23 23
d 0.339 1 2 cbr 500 ------- 0 0.0 2.0 23 23
+ 0.34 0 1 cbr 500 ------- 0 0.0 2.0 28 28
- 0.34 0 1 cbr 500 ------- 0 0.0 2.0 28 28
- 0.341188 1 2 cbr 500 ------- 0 0.0 2.0 18 18
r 0.344 0 1 cbr 500 ------- 0 0.0 2.0 24 24
+ 0.344 1 2 cbr 500 ------- 0 0.0 2.0 24 24
+ 0.345 0 1 cbr 500 ------- 0 0.0 2.0 29 29
- 0.345 0 1 cbr 500 ------- 0 0.0 2.0 29 29
r 0.345563 1 2 cbr 500 ------- 0 0.0 2.0 13 13
- 0.349 1 2 cbr 500 ------- 0 0.0 2.0 19 19
r 0.349 0 1 cbr 500 ------- 0 0.0 2.0 25 25
+ 0.349 1 2 cbr 500 ------- 0 0.0 2.0 25 25
+ 0.35 0 1 cbr 500 ------- 0 0.0 2.0 30 30
- 0.35 0 1 cbr 500 ------- 0 0.0 2.0 30 30
r 0.353375 1 2 cbr 500 ------- 0 0.0 2.0 15 15
r 0.354 0 1 cbr 500 ------- 0 0.0 2.0 26 26
+ 0.354 1 2 cbr 500 ------- 0 0.0 2.0 26 26
d 0.354 1 2 cbr 500 ------- 0 0.0 2.0 26 26
+ 0.355 0 1 cbr 500 ------- 0 0.0 2.0 31 31
- 0.355 0 1 cbr 500 ------- 0 0.0 2.0 31 31
- 0.356813 1 2 cbr 500 ------- 0 0.0 2.0 21 21
r 0.359 0 1 cbr 500 ------- 0 0.0 2.0 27 27
+ 0.359 1 2 cbr 500 ------- 0 0.0 2.0 27 27
+ 0.36 0 1 cbr 500 ------- 0 0.0 2.0 32 32
- 0.36 0 1 cbr 500 ------- 0 0.0 2.0 32 32
r 0.361188 1 2 cbr 500 ------- 0 0.0 2.0 16 16
r 0.364 0 1 cbr 500 ------- 0 0.0 2.0 28 28
+ 0.364 1 2 cbr 500 ------- 0 0.0 2.0 28 28
d 0.364 1 2 cbr 500 ------- 0 0.0 2.0 28 28
- 0.364625 1 2 cbr 500 ------- 0 0.0 2.0 22 22
+ 0.365 0 1 cbr 500 ------- 0 0.0 2.0 33 33
- 0.365 0 1 cbr 500 ------- 0 0.0 2.0 33 33
r 0.369 1 2 cbr 500 ------- 0 0.0 2.0 18 18
r 0.369 0 1 cbr 500 ------- 0 0.0 2.0 29 29
+ 0.369 1 2 cbr 500 ------- 0 0.0 2.0 29 29
+ 0.37 0 1 cbr 500 ------- 0 0.0 2.0 34 34
- 0.37 0 1 cbr 500 ------- 0 0.0 2.0 34 34
- 0.372438 1 2 cbr 500 ------- 0 0.0 2.0 24 24
r 0.374 0 1 cbr 500 ------- 0 0.0 2.0 30 30
+ 0.374 1 2 cbr 500 ------- 0 0.0 2.0 30 30
+ 0.375 0 1 cbr 500 ------- 0 0.0 2.0 35 35
- 0.375 0 1 cbr 500 ------- 0 0.0 2.0 35 35
r 0.376813 1 2 cbr 500 ------- 0 0.0 2.0 19 19
r 0.379 0 1 cbr 500 ------- 0 0.0 2.0 31 31
+ 0.379 1 2 cbr 500 ------- 0 0.0 2.0 31 31
d 0.379 1 2 cbr 500 ------- 0 0.0 2.0 31 31
+ 0.38 0 1 cbr 500 ------- 0 0.0 2.0 36 36
- 0.38 0 1 cbr 500 ------- 0 0.0 2.0 36 36
- 0.38025 1 2 cbr 500 ------- 0 0.0 2.0 25 25
r 0.384 0 1 cbr 500 ------- 0 0.0 2.0 32 32
+ 0.384 1 2 cbr 500 ------- 0 0.0 2.0 32 32
r 0.384625 1 2 cbr 500 ------- 0 0.0 2.0 21 21
+ 0.385 0 1 cbr 500 ------- 0 0.0 2.0 37 37
- 0.385 0 1 cbr 500 ------- 0 0.0 2.0 37 37
- 0.388063 1 2 cbr 500 ------- 0 0.0 2.0 27 27
r 0.389 0 1 cbr 500 ------- 0 0.0 2.0 33 33
+ 0.389 1 2 cbr 500 ------- 0 0.0 2.0 33 33
+ 0.39 0 1 cbr 500 ------- 0 0.0 2.0 38 38
- 0.39 0 1 cbr 500 ------- 0 0.0 2.0 38 38
r 0.392438 1 2 cbr 500 ------- 0 0.0 2.0 22 22
r 0.394 0 1 cbr 500 ------- 0 0.0 2.0 34 34
+ 0.394 1 2 cbr 500 ------- 0 0.0 2.0 34 34
d 0.394 1 2 cbr 500 ------- 0 0.0 2.0 34 34
+ 0.395 0 1 cbr 500 ------- 0 0.0 2.0 39 39
- 0.395 0 1 cbr 500 ------- 0 0.0 2.0 39 39
- 0.395875 1 2 cbr 500 ------- 0 0.0 2.0 29 29
r 0.399 0 1 cbr 500 ------- 0 0.0 2.0 35 35
+ 0.399 1 2 cbr 500 ------- 0 0.0 2.0 35 35
+ 0.4 0 1 cbr 500 ------- 0 0.0 2.0 40 40
- 0.4 0 1 cbr 500 ------- 0 0.0 2.0 40 40
r 0.40025 1 2 cbr 500 ------- 0 0.0 2.0 24 24
- 0.403688 1 2 cbr 500 ------- 0 0.0 2.0 30 30
r 0.404 0 1 cbr 500 ------- 0 0.0 2.0 36 36
+ 0.404 1 2 cbr 500 ------- 0 0.0 2.0 36 36
+ 0.405 0 1 cbr 500 ------- 0 0.0 2.0 41 41
- 0.405 0 1 cbr 500 ------- 0 0.0 2.0 41 41
r 0.408063 1 2 cbr 500 ------- 0 0.0 2.0 25 25
r 0.409 0 1 cbr 500 ------- 0 0.0 2.0 37 37
+ 0.409 1 2 cbr 500 ------- 0 0.0 2.0 37 37
d 0.409 1 2 cbr 500 ------- 0 0.0 2.0 37 37
+ 0.41 0 1 cbr 500 ------- 0 0.0 2.0 42 42
- 0.41 0 1 cbr 500 ------- 0 0.0 2.0 42 42
- 0.4115 1 2 cbr 500 ------- 0 0.0 2.0 32 32
r 0.414 0 1 cbr 500 ------- 0 0.0 2.0 38 38
+ 0.414 1 2 cbr 500 ------- 0 0.0 2.0 38 38
+ 0.415 0 1 cbr 500 ------- 0 0.0 2.0 43 43
- 0.415 0 1 cbr 500 ------- 0 0.0 2.0 43 43
r 0.415875 1 2 cbr 500 ------- 0 0.0 2.0 27 27
r 0.419 0 1 cbr 500 ------- 0 0.0 2.0 39 39
+ 0.419 1 2 cbr 500 ------- 0 0.0 2.0 39 39
d 0.419 1 2 cbr 500 ------- 0 0.0 2.0 39 39
- 0.419313 1 2 cbr 500 ------- 0 0.0 2.0 33 33
+ 0.42 0 1 cbr 500 ------- 0 0.0 2.0 44 44
- 0.42 0 1 cbr 500 ------- 0 0.0 2.0 44 44
r 0.423688 1 2 cbr 500 ------- 0 0.0 2.0 29 29
r 0.424 0 1 cbr 500 ------- 0 0.0 2.0 40 40
+ 0.424 1 2 cbr 500 ------- 0 0.0 2.0 40 40
+ 0.425 0 1 cbr 500 ------- 0 0.0 2.0 45 45
- 0.425 0 1 cbr 500 ------- 0 0.0 2.0 45 45
- 0.427125 1 2 cbr 500 ------- 0 0.0 2.0 35 35
r 0.429 0 1 cbr 500 ------- 0 0.0 2.0 41 41
+ 0.429 1 2 cbr 500 ------- 0 0.0 2.0 41 41
+ 0.43 0 1 cbr 500 ------- 0 0.0 2.0 46 46
- 0.43 0 1 cbr 500 ------- 0 0.0 2.0 46 46
r 0.4315 1 2 cbr 500 ------- 0 0.0 2.0 30 30
r 0.434 0 1 cbr 500 ------- 0 0.0 2.0 42 42
+ 0.434 1 2 cbr 500 ------- 0 0.0 2.0 42 42
d 0.434 1 2 cbr 500 ------- 0 0.0 2.0 42 42
- 0.434938 1 2 cbr 500 ------- 0 0.0 2.0 36 36
+ 0.435 0 1 cbr 500 ------- 0 0.0 2.0 47 47
- 0.435 0 1 cbr 500 ------- 0 0.0 2.0 47 47
r 0.439 0 1 cbr 500 ------- 0 0.0 2.0 43 43
+ 0.439 1 2 cbr 500 ------- 0 0.0 2.0 43 43
r 0.439313 1 2 cbr 500 ------- 0 0.0 2.0 32 32
+ 0.44 0 1 cbr 500 ------- 0 0.0 2.0 48 48
- 0.44 0 1 cbr 500 ------- 0 0.0 2.0 48 48
- 0.44275 1 2 cbr 500 ------- 0 0.0 2.0 38 38
r 0.444 0 1 cbr 500 ------- 0 0.0 2.0 44 44
+ 0.444 1 2 cbr 500 ------- 0 0.0 2.0 44 44
+ 0.445 0 1 cbr 500 ------- 0 0.0 2.0 49 49
- 0.445 0 1 cbr 500 ------- 0 0.0 2.0 49 49
r 0.447125 1 2 cbr 500 ------- 0 0.0 2.0 33 33
r 0.449 0 1 cbr 500 ------- 0 0.0 2.0 45 45
+ 0.449 1 2 cbr 500 ------- 0 0.0 2.0 45 45
d 0.449 1 2 cbr 500 ------- 0 0.0 2.0 45 45
+ 0.45 0 1 cbr 500 ------- 0 0.0 2.0 50 50
- 0.45 0 1 cbr 500 ------- 0 0.0 2.0 50 50
- 0.450563 1 2 cbr 500 ------- 0 0.0 2.0 40 40
r 0.454 0 1 cbr 500 ------- 0 0.0 2.0 46 46
+ 0.454 1 2 cbr 500 ------- 0 0.0 2.0 46 46
r 0.454938 1 2 cbr 500 ------- 0 0.0 2.0 35 35
+ 0.455 0 1 cbr 500 ------- 0 0.0 2.0 51 51
- 0.455 0 1 cbr 500 ------- 0 0.0 2.0 51 51
- 0.458375 1 2 cbr 500 ------- 0 0.0 2.0 41 41
r 0.459 0 1 cbr 500 ------- 0 0.0 2.0 47 47
+ 0.459 1 2 cbr 500 ------- 0 0.0 2.0 47 47
+ 0.46 0 1 cbr 500 ------- 0 0.0 2.0 52 52
- 0.46 0 1 cbr 500 ------- 0 0.0 2.0 52 52
r 0.46275 1 2 cbr 500 ------- 0 0.0 2.0 36 36
r 0.464 0 1 cbr 500 ------- 0 0.0 2.0 48 48
+ 0.464 1 2 cbr 500 ------- 0 0.0 2.0 48 48
d 0.464 1 2 cbr 500 ------- 0 0.0 2.0 48 48
+ 0.465 0 1 cbr 500 ------- 0 0.0 2.0 53 53
- 0.465 0 1 cbr 500 ------- 0 0.0 2.0 53 53
- 0.466188 1 2 cbr 500 ------- 0 0.0 2.0 43 43
r 0.469 0 1 cbr 500 ------- 0 0.0 2.0 49 49
+ 0.469 1 2 cbr 500 ------- 0 0.0 2.0 49 49
+ 0.47 0 1 cbr 500 ------- 0 0.0 2.0 54 54
- 0.47 0 1 cbr 500 ------- 0 0.0 2.0 54 54
r 0.470563 1 2 cbr 500 ------- 0 0.0 2.0 38 38
- 0.474 1 2 cbr 500 ------- 0 0.0 2.0 44 44
r 0.474 0 1 cbr 500 ------- 0 0.0 2.0 50 50
+ 0.474 1 2 cbr 500 ------- 0 0.0 2.0 50 50
+ 0.475 0 1 cbr 500 ------- 0 0.0 2.0 55 55
- 0.475 0 1 cbr 500 ------- 0 0.0 2.0 55 55
r 0.478375 1 2 cbr 500 ------- 0 0.0 2.0 40 40
r 0.479 0 1 cbr 500 ------- 0 0.0 2.0 51 51
+ 0.479 1 2 cbr 500 ------- 0 0.0 2.0 51 51
d 0.479 1 2 cbr 500 ------- 0 0.0 2.0 51 51
+ 0.48 0 1 cbr 500 ------- 0 0.0 2.0 56 56
- 0.48 0 1 cbr 500 ------- 0 0.0 2.0 56 56
- 0.481813 1 2 cbr 500 ------- 0 0.0 2.0 46 46
r 0.484 0 1 cbr 500 ------- 0 0.0 2.0 52 52
+ 0.484 1 2 cbr 500 ------- 0 0.0 2.0 52 52
+ 0.485 0 1 cbr 500 ------- 0 0.0 2.0 57 57
- 0.485 0 1 cbr 500 ------- 0 0.0 2.0 57 57
r 0.486188 1 2 cbr 500 ------- 0 0.0 2.0 41 41
r 0.489 0 1 cbr 500 ------- 0 0.0 2.0 53 53
+ 0.489 1 2 cbr 500 ------- 0 0.0 2.0 53 53
d 0.489 1 2 cbr 500 ------- 0 0.0 2.0 53 53
- 0.489625 1 2 cbr 500 ------- 0 0.0 2.0 47 47
+ 0.49 0 1 cbr 500 ------- 0 0.0 2.0 58 58
- 0.49 0 1 cbr 500 ------- 0 0.0 2.0 58 58
r 0.494 1 2 cbr 500 ------- 0 0.0 2.0 43 43
r 0.494 0 1 cbr 500 ------- 0 0.0 2.0 54 54
+ 0.494 1 2 cbr 500 ------- 0 0.0 2.0 54 54
+ 0.495 0 1 cbr 500 ------- 0 0.0 2.0 59 59
- 0.495 0 1 cbr 500 ------- 0 0.0 2.0 59 59
- 0.497438 1 2 cbr 500 ------- 0 0.0 2.0 49 49
r 0.499 0 1 cbr 500 ------- 0 0.0 2.0 55 55
+ 0.499 1 2 cbr 500 ------- 0 0.0 2.0 55 55
+ 0.5 0 1 cbr 500 ------- 0 0.0 2.0 60 60
- 0.5 0 1 cbr 500 ------- 0 0.0 2.0 60 60
r 0.501813 1 2 cbr 500 ------- 0 0.0 2.0 44 44
r 0.504 0 1 cbr 500 ------- 0 0.0 2.0 56 56
+ 0.504 1 2 cbr 500 ------- 0 0.0 2.0 56 56
d 0.504 1 2 cbr 500 ------- 0 0.0 2.0 56 56
+ 0.505 0 1 cbr 500 ------- 0 0.0 2.0 61 61
- 0.505 0 1 cbr 500 ------- 0 0.0 2.0 61 61
- 0.50525 1 2 cbr 500 ------- 0 0.0 2.0 50 50
r 0.509 0 1 cbr 500 ------- 0 0.0 2.0 57 57
+ 0.509 1 2 cbr 500 ------- 0 0.0 2.0 57 57
r 0.509625 1 2 cbr 500 ------- 0 0.0 2.0 46 46
+ 0.51 0 1 cbr 500 ------- 0 0.0 2.0 62 62
- 0.51 0 1 cbr 500 ------- 0 0.0 2.0 62 62
- 0.513063 1 2 cbr 500 ------- 0 0.0 2.0 52 52
r 0.514 0 1 cbr 500 ------- 0 0.0 2.0 58 58
+ 0.514 1 2 cbr 500 ------- 0 0.0 2.0 58 58
+ 0.515 0 1 cbr 500 ------- 0 0.0 2.0 63 63
- 0.515 0 1 cbr 500 ------- 0 0.0 2.0 63 63
r 0.517438 1 2 cbr 500 ------- 0 0.0 2.0 47 47
r 0.519 0 1 cbr 500 ------- 0 0.0 2.0 59 59
+ 0.519 1 2 cbr 500 ------- 0 0.0 2.0 59 59
d 0.519 1 2 cbr 500 ------- 0 0.0 2.0 59 59
+ 0.52 0 1 cbr 500 ------- 0 0.0 2.0 64 64
- 0.52 0 1 cbr 500 ------- 0 0.0 2.0 64 64
- 0.520875 1 2 cbr 500 ------- 0 0.0 2.0 54 54
r 0.524 0 1 cbr 500 ------- 0 0.0 2.0 60 60
+ 0.524 1 2 cbr 500 ------- 0 0.0 2.0 60 60
+ 0.525 0 1 cbr 500 ------- 0 0.0 2.0 65 65
- 0.525 0 1 cbr 500 ------- 0 0.0 2.0 65 65
r 0.52525 1 2 cbr 500 ------- 0 0.0 2.0 49 49
- 0.528688 1 2 cbr 500 ------- 0 0.0 2.0 55 55
r 0.529 0 1 cbr 500 ------- 0 0.0 2.0 61 61
+ 0.529 1 2 cbr 500 ------- 0 0.0 2.0 61 61
+ 0.53 0 1 cbr 500 ------- 0 0.0 2.0 66 66
- 0.53 0 1 cbr 500 ------- 0 0.0 2.0 66 66
r 0.533063 1 2 cbr 500 ------- 0 0.0 2.0 50 50
r 0.534 0 1 cbr 500 ------- 0 0.0 2.0 62 62
+ 0.534 1 2 cbr 500 ------- 0 0.0 2.0 62 62
d 0.534 1 2 cbr 500 ------- 0 0.0 2.0 62 62
+ 0.535 0 1 cbr 500 ------- 0 0.0 2.0 67 67
- 0.535 0 1 cbr 500 ------- 0 0.0 2.0 67 67
- 0.5365 1 2 cbr 500 ------- 0 0.0 2.0 57 57
r 0.539 0 1 cbr 500 ------- 0 0.0 2.0 63 63
+ 0.539 1 2 cbr 500 ------- 0 0.0 2.0 63 63
+ 0.54 0 1 cbr 500 ------- 0 0.0 2.0 68 68
- 0.54 0 1 cbr 500 ------- 0 0.0 2.0 68 68
r 0.540875 1 2 cbr 500 ------- 0 0.0 2.0 52 52
r 0.544 0 1 cbr 500 ------- 0 0.0 2.0 64 64
+ 0.544 1 2 cbr 500 ------- 0 0.0 2.0 64 64
d 0.544 1 2 cbr 500 ------- 0 0.0 2.0 64 64
- 0.544313 1 2 cbr 500 ------- 0 0.0 2.0 58 58
+ 0.545 0 1 cbr 500 ------- 0 0.0 2.0 69 69
- 0.545 0 1 cbr 500 ------- 0 0.0 2.0 69 69
r 0.548688 1 2 cbr 500 ------- 0 0.0 2.0 54 54
r 0.549 0 1 cbr 500 ------- 0 0.0 2.0 65 65
+ 0.549 1 2 cbr 500 ------- 0 0.0 2.0 65 65
+ 0.55 0 1 cbr 500 ------- 0 0.0 2.0 70 70
- 0.55 0 1 cbr 500 ------- 0 0.0 2.0 70 70
- 0.552125 1 2 cbr 500 ------- 0 0.0 2.0 60 60
r 0.554 0 1 cbr 500 ------- 0 0.0 2.0 66 66
+ 0.554 1 2 cbr 500 ------- 0 0.0 2.0 66 66
+ 0.555 0 1 cbr 500 ------- 0 0.0 2.0 71 71
- 0.555 0 1 cbr 500 ------- 0 0.0 2.0 71 71
r 0.5565 1 2 cbr 500 ------- 0 0.0 2.0 55 55
r 0.559 0 1 cbr 500 ------- 0 0.0 2.0 67 67
+ 0.559 1 2 cbr 500 ------- 0 0.0 2.0 67 67
d 0.559 1 2 cbr 500 ------- 0 0.0 2.0 67 67
- 0.559938 1 2 cbr 500 ------- 0 0.0 2.0 61 61
+ 0.56 0 1 cbr 500 ------- 0 0.0 2.0 72 72
- 0.56 0 1 cbr 500 ------- 0 0.0 2.0 72 72
r 0.564 0 1 cbr 500 ------- 0 0.0 2.0 68 68
+ 0.564 1 2 cbr 500 ------- 0 0.0 2.0 68 68
r 0.564313 1 2 cbr 500 ------- 0 0.0 2.0 57 57
+ 0.565 0 1 cbr 500 ------- 0 0.0 2.0 73 73
- 0.565 0 1 cbr 500 ------- 0 0.0 2.0 73 73
- 0.56775 1 2 cbr 500 ------- 0 0.0 2.0 63 63
r 0.569 0 1 cbr 500 ------- 0 0.0 2.0 69 69
+ 0.569 1 2 cbr 500 ------- 0 0.0 2.0 69 69
+ 0.57 0 1 cbr 500 ------- 0 0.0 2.0 74 74
- 0.57 0 1 cbr 500 ------- 0 0.0 2.0 74 74
r 0.572125 1 2 cbr 500 ------- 0 0.0 2.0 58 58
r 0.574 0 1 cbr 500 ------- 0 0.0 2.0 70 70
+ 0.574 1 2 cbr 500 ------- 0 0.0 2.0 70 70
d 0.574 1 2 cbr 500 ------- 0 0.0 2.0 70 70
+ 0.575 0 1 cbr 500 ------- 0 0.0 2.0 75 75
- 0.575 0 1 cbr 500 ------- 0 0.0 2.0 75 75
- 0.575563 1 2 cbr 500 ------- 0 0.0 2.0 65 65
r 0.579 0 1 cbr 500 ------- 0 0.0 2.0 71 71
+ 0.579 1 2 cbr 500 ------- 0 0.0 2.0 71 71
r 0.579938 1 2 cbr 500 ------- 0 0.0 2.0 60 60
+ 0.58 0 1 cbr 500 ------- 0 0.0 2.0 76 76
- 0.58 0 1 cbr 500 ------- 0 0.0 2.0 76 76
- 0.583375 1 2 cbr 500 ------- 0 0.0 2.0 66 66
r 0.584 0 1 cbr 500 ------- 0 0.0 2.0 72 72
+ 0.584 1 2 cbr 500 ------- 0 0.0 2.0 72 72
+ 0.585 0 1 cbr 500 ------- 0 0.0 2.0 77 77
- 0.585 0 1 cbr 500 ------- 0 0.0 2.0 77 77
r 0.58775 1 2 cbr 500 ------- 0 0.0 2.0 61 61
r 0.589 0 1 cbr 500 ------- 0 0.0 2.0 73 73
+ 0.589 1 2 cbr 500 ------- 0 0.0 2.0 73 73
d 0.589 1 2 cbr 500 ------- 0 0.0 2.0 73 73
+ 0.59 0 1 cbr 500 ------- 0 0.0 2.0 78 78
- 0.59 0 1 cbr 500 ------- 0 0.0 2.0 78 78
- 0.591188 1 2 cbr 500 ------- 0 0.0 2.0 68 68
r 0.594 0 1 cbr 500 ------- 0 0.0 2.0 74 74
+ 0.594 1 2 cbr 500 ------- 0 0.0 2.0 74 74
+ 0.595 0 1 cbr 500 ------- 0 0.0 2.0 79 79
- 0.595 0 1 cbr 500 ------- 0 0.0 2.0 79 79
r 0.595563 1 2 cbr 500 ------- 0 0.0 2.0 63 63
- 0.599 1 2 cbr 500 ------- 0 0.0 2.0 69 69
r 0.599 0 1 cbr 500 ------- 0 0.0 2.0 75 75
+ 0.599 1 2 cbr 500 ------- 0 0.0 2.0 75 75
+ 0.6 0 1 cbr 500 ------- 0 0.0 2.0 80 80
- 0.6 0 1 cbr 500 ------- 0 0.0 2.0 80 80
r 0.603375 1 2 cbr 500 ------- 0 0.0 2.0 65 65
r 0.604 0 1 cbr 500 ------- 0 0.0 2.0 76 76
+ 0.604 1 2 cbr 500 ------- 0 0.0 2.0 76 76
d 0.604 1 2 cbr 500 ------- 0 0.0 2.0 76 76
+ 0.605 0 1 cbr 500 ------- 0 0.0 2.0 81 81
- 0.605 0 1 cbr 500 ------- 0 0.0 2.0 81 81
- 0.606813 1 2 cbr 500 ------- 0 0.0 2.0 71 71
r 0.609 0 1 cbr 500 ------- 0 0.0 2.0 77 77
+ 0.609 1 2 cbr 500 ------- 0 0.0 2.0 77 77
+ 0.61 0 1 cbr 500 ------- 0 0.0 2.0 82 82
- 0.61 0 1 cbr 500 ------- 0 0.0 2.0 82 82
r 0.611188 1 2 cbr 500 ------- 0 0.0 2.0 66 66
r 0.614 0 1 cbr 500 ------- 0 0.0 2.0 78 78
+ 0.614 1 2 cbr 500 ------- 0 0.0 2.0 78 78
d 0.614 1 2 cbr 500 ------- 0 0.0 2.0 78 78
- 0.614625 1 2 cbr 500 ------- 0 0.0 2.0 72 72
+ 0.615 0 1 cbr 500 ------- 0 0.0 2.0 83 83
- 0.615 0 1 cbr 500 ------- 0 0.0 2.0 83 83
r 0.619 1 2 cbr 500 ------- 0 0.0 2.0 68 68
r 0.619 0 1 cbr 500 ------- 0 0.0 2.0 79 79
+ 0.619 1 2 cbr 500 ------- 0 0.0 2.0 79 79
+ 0.62 0 1 cbr 500 ------- 0 0.0 2.0 84 84
- 0.62 0 1 cbr 500 ------- 0 0.0 2.0 84 84
- 0.622438 1 2 cbr 500 ------- 0 0.0 2.0 74 74
r 0.624 0 1 cbr 500 ------- 0 0.0 2.0 80 80
+ 0.624 1 2 cbr 500 ------- 0 0.0 2.0 80 80
+ 0.625 0 1 cbr 500 ------- 0 0.0 2.0 85 85
- 0.625 0 1 cbr 500 ------- 0 0.0 2.0 85 85
r 0.626813 1 2 cbr 500 ------- 0 0.0 2.0 69 69
r 0.629 0 1 cbr 500 ------- 0 0.0 2.0 81 81
+ 0.629 1 2 cbr 500 ------- 0 0.0 2.0 81 81
d 0.629 1 2 cbr 500 ------- 0 0.0 2.0 81 81
+ 0.63 0 1 cbr 500 ------- 0 0.0 2.0 86 86
- 0.63 0 1 cbr 500 ------- 0 0.0 2.0 86 86
- 0.63025 1 2 cbr 500 ------- 0 0.0 2.0 75 75
r 0.634 0 1 cbr 500 ------- 0 0.0 2.0 82 82
+ 0.634 1 2 cbr 500 ------- 0 0.0 2.0 82 82
r 0.634625 1 2 cbr 500 ------- 0 0.0 2.0 71 71
+ 0.635 0 1 cbr 500 ------- 0 0.0 2.0 87 87
- 0.635 0 1 cbr 500 ------- 0 0.0 2.0 87 87
- 0.638063 1 2 cbr 500 ------- 0 0.0 2.0 77 77
r 0.639 0 1 cbr 500 ------- 0 0.0 2.0 83 83
+ 0.639 1 2 cbr 500 ------- 0 0.0 2.0 83 83
+ 0.64 0 1 cbr 500 ------- 0 0.0 2.0 88 88
- 0.64 0 1 cbr 500 ------- 0 0.0 2.0 88 88
r 0.642438 1 2 cbr 500 ------- 0 0.0 2.0 72 72
r 0.644 0 1 cbr 500 ------- 0 0.0 2.0 84 84
+ 0.644 1 2 cbr 500 ------- 0 0.0 2.0 84 84
d 0.644 1 2 cbr 500 ------- 0 0.0 2.0 84 84
+ 0.645 0 1 cbr 500 ------- 0 0.0 2.0 89 89
- 0.645 0 1 cbr 500 ------- 0 0.0 2.0 89 89
- 0.645875 1 2 cbr 500 ------- 0 0.0 2.0 79 79
r 0.649 0 1 cbr 500 ------- 0 0.0 2.0 85 85
+ 0.649 1 2 cbr 500 ------- 0 0.0 2.0 85 85
+ 0.65 0 1 cbr 500 ------- 0 0.0 2.0 90 90
- 0.65 0 1 cbr 500 ------- 0 0.0 2.0 90 90
r 0.65025 1 2 cbr 500 ------- 0 0.0 2.0 74 74
- 0.653688 1 2 cbr 500 ------- 0 0.0 2.0 80 80
r 0.654 0 1 cbr 500 ------- 0 0.0 2.0 86 86
+ 0.654 1 2 cbr 500 ------- 0 0.0 2.0 86 86
+ 0.655 0 1 cbr 500 ------- 0 0.0 2.0 91 91
- 0.655 0 1 cbr 500 ------- 0 0.0 2.0 91 91
r 0.658063 1 2 cbr 500 ------- 0 0.0 2.0 75 75
r 0.659 0 1 cbr 500 ------- 0 0.0 2.0 87 87
+ 0.659 1 2 cbr 500 ------- 0 0.0 2.0 87 87
d 0.659 1 2 cbr 500 ------- 0 0.0 2.0 87 87
+ 0.66 0 1 cbr 500 ------- 0 0.0 2.0 92 92
- 0.66 0 1 cbr 500 ------- 0 0.0 2.0 92 92
- 0.6615 1 2 cbr 500 ------- 0 0.0 2.0 82 82
r 0.664 0 1 cbr 500 ------- 0 0.0 2.0 88 88
+ 0.664 1 2 cbr 500 ------- 0 0.0 2.0 88 88
+ 0.665 0 1 cbr 500 ------- 0 0.0 2.0 93 93
- 0.665 0 1 cbr 500 ------- 0 0.0 2.0 93 93
r 0.665875 1 2 cbr 500 ------- 0 0.0 2.0 77 77
r 0.669 0 1 cbr 500 ------- 0 0.0 2.0 89 89
+ 0.669 1 2 cbr 500 ------- 0 0.0 2.0 89 89
d 0.669 1 2 cbr 500 ------- 0 0.0 2.0 89 89
- 0.669313 1 2 cbr 500 ------- 0 0.0 2.0 83 83
+ 0.67 0 1 cbr 500 ------- 0 0.0 2.0 94 94
- 0.67 0 1 cbr 500 ------- 0 0.0 2.0 94 94
r 0.673688 1 2 cbr 500 ------- 0 0.0 2.0 79 79
r 0.674 0 1 cbr 500 ------- 0 0.0 2.0 90 90
+ 0.674 1 2 cbr 500 ------- 0 0.0 2.0 90 90
+ 0.675 0 1 cbr 500 ------- 0 0.0 2.0 95 95
- 0.675 0 1 cbr 500 ------- 0 0.0 2.0 95 95
- 0.677125 1 2 cbr 500 ------- 0 0.0 2.0 85 85
r 0.679 0 1 cbr 500 ------- 0 0.0 2.0 91 91
+ 0.679 1 2 cbr 500 ------- 0 0.0 2.0 91 91
+ 0.68 0 1 cbr 500 ------- 0 0.0 2.0 96 96
- 0.68 0 1 cbr 500 ------- 0 0.0 2.0 96 96
r 0.6815 1 2 cbr 500 ------- 0 0.0 2.0 80 80
r 0.684 0 1 cbr 500 ------- 0 0.0 2.0 92 92
+ 0.684 1 2 cbr 500 ------- 0 0.0 2.0 92 92
d 0.684 1 2 cbr 500 ------- 0 0.0 2.0 92 92
- 0.684938 1 2 cbr 500 ------- 0 0.0 2.0 86 86
+ 0.685 0 1 cbr 500 ------- 0 0.0 2.0 97 97
- 0.685 0 1 cbr 500 ------- 0 0.0 2.0 97 97
r 0.689 0 1 cbr 500 ------- 0 0.0 2.0 93 93
+ 0.689 1 2 cbr 500 ------- 0 0.0 2.0 93 93
r 0.689313 1 2 cbr 500 ------- 0 0.0 2.0 82 82
+ 0.69 0 1 cbr 500 ------- 0 0.0 2.0 98 98
- 0.69 0 1 cbr 500 ------- 0 0.0 2.0 98 98
- 0.69275 1 2 cbr 500 ------- 0 0.0 2.0 88 88
r 0.694 0 1 cbr 500 ------- 0 0.0 2.0 94 94
+ 0.694 1 2 cbr 500 ------- 0 0.0 2.0 94 94
+ 0.695 0 1 cbr 500 ------- 0 0.0 2.0 99 99
- 0.695 0 1 cbr 500 ------- 0 0.0 2.0 99 99
r 0.697125 1 2 cbr 500 ------- 0 0.0 2.0 83 83
r 0.699 0 1 cbr 500 ------- 0 0.0 2.0 95 95
+ 0.699 1 2 cbr 500 ------- 0 0.0 2.0 95 95
d 0.699 1 2 cbr 500 ------- 0 0.0 2.0 95 95
+ 0.7 0 1 cbr 500 ------- 0 0.0 2.0 100 100
- 0.7 0 1 cbr 500 ------- 0 0.0 2.0 100 100
- 0.700563 1 2 cbr 500 ------- 0 0.0 2.0 90 90
r 0.704 0 1 cbr 500 ------- 0 0.0 2.0 96 96
+ 0.704 1 2 cbr 500 ------- 0 0.0 2.0 96 96
r 0.704938 1 2 cbr 500 ------- 0 0.0 2.0 85 85
+ 0.705 0 1 cbr 500 ------- 0 0.0 2.0 101 101
- 0.705 0 1 cbr 500 ------- 0 0.0 2.0 101 101
- 0.708375 1 2 cbr 500 ------- 0 0.0 2.0 91 91
r 0.709 0 1 cbr 500 ------- 0 0.0 2.0 97 97
+ 0.709 1 2 cbr 500 ------- 0 0.0 2.0 97 97
+ 0.71 0 1 cbr 500 ------- 0 0.0 2.0 102 102
- 0.71 0 1 cbr 500 ------- 0 0.0 2.0 102 102
r 0.71275 1 2 cbr 500 ------- 0 0.0 2.0 86 86
r 0.714 0 1 cbr 500 ------- 0 0.0 2.0 98 98
+ 0.714 1 2 cbr 500 ------- 0 0.0 2.0 98 98
d 0.714 1 2 cbr 500 ------- 0 0.0 2.0 98 98
+ 0.715 0 1 cbr 500 ------- 0 0.0 2.0 103 103
- 0.715 0 1 cbr 500 ------- 0 0.0 2.0 103 103
- 0.716188 1 2 cbr 500 ------- 0 0.0 2.0 93 93
r 0.719 0 1 cbr 500 ------- 0 0.0 2.0 99 99
+ 0.719 1 2 cbr 500 ------- 0 0.0 2.0 99 99
+ 0.72 0 1 cbr 500 ------- 0 0.0 2.0 104 104
- 0.72 0 1 cbr 500 ------- 0 0.0 2.0 104 104
r 0.720563 1 2 cbr 500 ------- 0 0.0 2.0 88 88
- 0.724 1 2 cbr 500 ------- 0 0.0 2.0 94 94
r 0.724 0 1 cbr 500 ------- 0 0.0 2.0 100 100
+ 0.724 1 2 cbr 500 ------- 0 0.0 2.0 100 100
+ 0.725 0 1 cbr 500 ------- 0 0.0 2.0 105 105
- 0.725 0 1 cbr 500 ------- 0 0.0 2.0 105 105
r 0.728375 1 2 cbr 500 ------- 0 0.0 2.0 90 90
r 0.729 0 1 cbr 500 ------- 0 0.0 2.0 101 101
+ 0.729 1 2 cbr 500 ------- 0 0.0 2.0 101 101
d 0.729 1 2 cbr 500 ------- 0 0.0 2.0 101 101
+ 0.73 0 1 cbr 500 ------- 0 0.0 2.0 106 106
- 0.73 0 1 cbr 500 ------- 0 0.0 2.0 106 106
- 0.731813 1 2 cbr 500 ------- 0 0.0 2.0 96 96
r 0.734 0 1 cbr 500 ------- 0 0.0 2.0 102 102
+ 0.734 1 2 cbr 500 ------- 0 0.0 2.0 102 102
+ 0.735 0 1 cbr 500 ------- 0 0.0 2.0 107 107
- 0.735 0 1 cbr 500 ------- 0 0.0 2.0 107 107
r 0.736188 1 2 cbr 500 ------- 0 0.0 2.0 91 91
r 0.739 0 1 cbr 500 ------- 0 0.0 2.0 103 103
+ 0.739 1 2 cbr 500 ------- 0 0.0 2.0 103 103
d 0.739 1 2 cbr 500 ------- 0 0.0 2.0 103 103
- 0.739625 1 2 cbr 500 ------- 0 0.0 2.0 97 97
+ 0.74 0 1 cbr 500 ------- 0 0.0 2.0 108 108
- 0.74 0 1 cbr 500 ------- 0 0.0 2.0 108 108
r 0.744 1 2 cbr 500 ------- 0 0.0 2.0 93 93
r 0.744 0 1 cbr 500 ------- 0 0.0 2.0 104 104
+ 0.744 1 2 cbr 500 ------- 0 0.0 2.0 104 104
+ 0.745 0 1 cbr 500 ------- 0 0.0 2.0 109 109
- 0.745 0 1 cbr 500 ------- 0 0.0 2.0 109 109
- 0.747438 1 2 cbr 500 ------- 0 0.0 2.0 99 99
r 0.749 0 1 cbr 500 ------- 0 0.0 2.0 105 105
+ 0.749 1 2 cbr 500 ------- 0 0.0 2.0 105 105
+ 0.75 0 1 cbr 500 ------- 0 0.0 2.0 110 110
- 0.75 0 1 cbr 500 ------- 0 0.0 2.0 110 110
r 0.751813 1 2 cbr 500 ------- 0 0.0 2.0 94 94
r 0.754 0 1 cbr 500 ------- 0 0.0 2.0 106 106
+ 0.754 1 2 cbr 500 ------- 0 0.0 2.0 106 106
d 0.754 1 2 cbr 500 ------- 0 0.0 2.0 106 106
+ 0.755 0 1 cbr 500 ------- 0 0.0 2.0 111 111
- 0.755 0 1 cbr 500 ------- 0 0.0 2.0 111 111
- 0.75525 1 2 cbr 500 ------- 0 0.0 2.0 100 100
r 0.759 0 1 cbr 500 ------- 0 0.0 2.0 107 107
+ 0.759 1 2 cbr 500 ------- 0 0.0 2.0 107 107
r 0.759625 1 2 cbr 500 ------- 0 0.0 2.0 96 96
+ 0.76 0 1 cbr 500 ------- 0 0.0 2.0 112 112
- 0.76 0 1 cbr 500 ------- 0 0.0 2.0 112 112
- 0.763063 1 2 cbr 500 ------- 0 0.0 2.0 102 102
r 0.764 0 1 cbr 500 ------- 0 0.0 2.0 108 108
+ 0.764 1 2 cbr 500 ------- 0 0.0 2.0 108 108
+ 0.765 0 1 cbr 500 ------- 0 0.0 2.0 113 113
- 0.765 0 1 cbr 500 ------- 0 0.0 2.0 113 113
r 0.767438 1 2 cbr 500 ------- 0 0.0 2.0 97 97
r 0.769 0 1 cbr 500 ------- 0 0.0 2.0 109 109
+ 0.769 1 2 cbr 500 ------- 0 0.0 2.0 109 109
d 0.769 1 2 cbr 500 ------- 0 0.0 2.0 109 109
+ 0.77 0 1 cbr 500 ------- 0 0.0 2.0 114 114
- 0.77 0 1 cbr 500 ------- 0 0.0 2.0 114 114
- 0.770875 1 2 cbr 500 ------- 0 0.0 2.0 104 104
r 0.774 0 1 cbr 500 ------- 0 0.0 2.0 110 110
+ 0.774 1 2 cbr 500 ------- 0 0.0 2.0 110 110
+ 0.775 0 1 cbr 500 ------- 0 0.0 2.0 115 115
- 0.775 0 1 cbr 500 ------- 0 0.0 2.0 115 115
r 0.77525 1 2 cbr 500 ------- 0 0.0 2.0 99 99
- 0.778688 1 2 cbr 500 ------- 0 0.0 2.0 105 105
r 0.779 0 1 cbr 500 ------- 0 0.0 2.0 111 111
+ 0.779 1 2 cbr 500 ------- 0 0.0 2.0 111 111
+ 0.78 0 1 cbr 500 ------- 0 0.0 2.0 116 116
- 0.78 0 1 cbr 500 ------- 0 0.0 2.0 116 116
r 0.783063 1 2 cbr 500 ------- 0 0.0 2.0 100 100
r 0.784 0 1 cbr 500 ------- 0 0.0 2.0 112 112
+ 0.784 1 2 cbr 500 ------- 0 0.0 2.0 112 112
d 0.784 1 2 cbr 500 ------- 0 0.0 2.0 112 112
+ 0.785 0 1 cbr 500 ------- 0 0.0 2.0 117 117
- 0.785 0 1 cbr 500 ------- 0 0.0 2.0 117 117
- 0.7865 1 2 cbr 500 ------- 0 0.0 2.0 107 107
r 0.789 0 1 cbr 500 ------- 0 0.0 2.0 113 113
+ 0.789 1 2 cbr 500 ------- 0 0.0 2.0 113 113
+ 0.79 0 1 cbr 500 ------- 0 0.0 2.0 118 118
- 0.79 0 1 cbr 500 ------- 0 0.0 2.0 118 118
r 0.790875 1 2 cbr 500 ------- 0 0.0 2.0 102 102
r 0.794 0 1 cbr 500 ------- 0 0.0 2.0 114 114
+ 0.794 1 2 cbr 500 ------- 0 0.0 2.0 114 114
d 0.794 1 2 cbr 500 ------- 0 0.0 2.0 114 114
- 0.794313 1 2 cbr 500 ------- 0 0.0 2.0 108 108
+ 0.795 0 1 cbr 500 ------- 0 0.0 2.0 119 119
- 0.795 0 1 cbr 500 ------- 0 0.0 2.0 119 119
r 0.798688 1 2 cbr 500 ------- 0 0.0 2.0 104 104
r 0.799 0 1 cbr 500 ------- 0 0.0 2.0 115 115
+ 0.799 1 2 cbr 500 ------- 0 0.0 2.0 115 115
+ 0.8 0 1 cbr 500 ------- 0 0.0 2.0 120 120
- 0.8 0 1 cbr 500 ------- 0 0.0 2.0 120 120
- 0.802125 1 2 cbr 500 ------- 0 0.0 2.0 110 110
r 0.804 0 1 cbr 500 ------- 0 0.0 2.0 116 116
+ 0.804 1 2 cbr 500 ------- 0 0.0 2.0 116 116
+ 0.805 0 1 cbr 500 ------- 0 0.0 2.0 121 121
- 0.805 0 1 cbr 500 ------- 0 0.0 2.0 121 121
r 0.8065 1 2 cbr 500 ------- 0 0.0 2.0 105 105
r 0.809 0 1 cbr 500 ------- 0 0.0 2.0 117 117
+ 0.809 1 2 cbr 500 ------- 0 0.0 2.0 117 117
d 0.809 1 2 cbr 500 ------- 0 0.0 2.0 117 117
- 0.809938 1 2 cbr 500 ------- 0 0.0 2.0 111 111
+ 0.81 0 1 cbr 500 ------- 0 0.0 2.0 122 122
- 0.81 0 1 cbr 500 ------- 0 0.0 2.0 122 122
r 0.814 0 1 cbr 500 ------- 0 0.0 2.0 118 118
+ 0.814 1 2 cbr 500 ------- 0 0.0 2.0 118 118
r 0.814313 1 2 cbr 500 ------- 0 0.0 2.0 107 107
+ 0.815 0 1 cbr 500 ------- 0 0.0 2.0 123 123
- 0.815 0 1 cbr 500 ------- 0 0.0 2.0 123 123