+ 0.5 0 2 tcp 40 ------- 1 0.0 3.0 0 0
- 0.5 0 2 tcp 40 ------- 1 0.0 3.0 0 0
r 0.51008 0 2 tcp 40 ------- 1 0.0 3.0 0 0
+ 0.51008 2 3 tcp 40 ------- 1 0.0 3.0 0 0
- 0.51008 2 3 tcp 40 ------- 1 0.0 3.0 0 0
r 0.5204 2 3 tcp 40 ------- 1 0.0 3.0 0 0
+ 0.5204 3 2 ack 40 ------- 1 3.0 0.0 0 1
- 0.5204 3 2 ack 40 ------- 1 3.0 0.0 0 1
r 0.53072 3 2 ack 40 ------- 1 3.0 0.0 0 1
+ 0.53072 2 0 ack 40 ------- 1 3.0 0.0 0 1
- 0.53072 2 0 ack 40 ------- 1 3.0 0.0 0 1
r 0.5408 2 0 ack 40 ------- 1 3.0 0.0 0 1
+ 0.5408 0 2 tcp 1040 ------- 1 0.0 3.0 1 2
- 0.5408 0 2 tcp 1040 ------- 1 0.0 3.0 1 2
+ 0.5408 0 2 tcp 1040 ------- 1 0.0 3.0 2 3
- 0.54288 0 2 tcp 1040 ------- 1 0.0 3.0 2 3
r 0.55288 0 2 tcp 1040 ------- 1 0.0 3.0 1 2
+ 0.55288 2 3 tcp 1040 ------- 1 0.0 3.0 1 2
- 0.55288 2 3 tcp 1040 ------- 1 0.0 3.0 1 2
r 0.55496 0 2 tcp 1040 ------- 1 0.0 3.0 2 3
+ 0.55496 2 3 tcp 1040 ------- 1 0.0 3.0 2 3
- 0.5612 2 3 tcp 1040 ------- 1 0.0 3.0 2 3
r 0.5712 2 3 tcp 1040 ------- 1 0.0 3.0 1 2
+ 0.5712 3 2 ack 40 ------- 1 3.0 0.0 1 4
- 0.5712 3 2 ack 40 ------- 1 3.0 0.0 1 4
r 0.57952 2 3 tcp 1040 ------- 1 0.0 3.0 2 3
+ 0.57952 3 2 ack 40 ------- 1 3.0 0.0 2 5
- 0.57952 3 2 ack 40 ------- 1 3.0 0.0 2 5
r 0.58152 3 2 ack 40 ------- 1 3.0 0.0 1 4
+ 0.58152 2 0 ack 40 ------- 1 3.0 0.0 1 4
- 0.58152 2 0 ack 40 ------- 1 3.0 0.0 1 4
r 0.58984 3 2 ack 40 ------- 1 3.0 0.0 2 5
+ 0.58984 2 0 ack 40 ------- 1 3.0 0.0 2 5
- 0.58984 2 0 ack 40 ------- 1 3.0 0.0 2 5
r 0.5916 2 0 ack 40 ------- 1 3.0 0.0 1 4
+ 0.5916 0 2 tcp 1040 ------- 1 0.0 3.0 3 6
- 0.5916 0 2 tcp 1040 ------- 1 0.0 3.0 3 6
+ 0.5916 0 2 tcp 1040 ------- 1 0.0 3.0 4 7
- 0.59368 0 2 tcp 1040 ------- 1 0.0 3.0 4 7
r 0.59992 2 0 ack 40 ------- 1 3.0 0.0 2 5
+ 0.59992 0 2 tcp 1040 ------- 1 0.0 3.0 5 8
- 0.59992 0 2 tcp 1040 ------- 1 0.0 3.0 5 8
+ 0.59992 0 2 tcp 1040 ------- 1 0.0 3.0 6 9
- 0.602 0 2 tcp 1040 ------- 1 0.0 3.0 6 9
r 0.60368 0 2 tcp 1040 ------- 1 0.0 3.0 3 6
+ 0.60368 2 3 tcp 1040 ------- 1 0.0 3.0 3 6
- 0.60368 2 3 tcp 1040 ------- 1 0.0 3.0 3 6
r 0.60576 0 2 tcp 1040 ------- 1 0.0 3.0 4 7
+ 0.60576 2 3 tcp 1040 ------- 1 0.0 3.0 4 7
r 0.612 0 2 tcp 1040 ------- 1 0.0 3.0 5 8
+ 0.612 2 3 tcp 1040 ------- 1 0.0 3.0 5 8
- 0.612 2 3 tcp 1040 ------- 1 0.0 3.0 4 7
r 0.61408 0 2 tcp 1040 ------- 1 0.0 3.0 6 9
+ 0.61408 2 3 tcp 1040 ------- 1 0.0 3.0 6 9
- 0.62032 2 3 tcp 1040 ------- 1 0.0 3.0 5 8
r 0.622 2 3 tcp 1040 ------- 1 0.0 3.0 3 6
+ 0.622 3 2 ack 40 ------- 1 3.0 0.0 3 10
- 0.622 3 2 ack 40 ------- 1 3.0 0.0 3 10
- 0.62864 2 3 tcp 1040 ------- 1 0.0 3.0 6 9
r 0.63032 2 3 tcp 1040 ------- 1 0.0 3.0 4 7
+ 0.63032 3 2 ack 40 ------- 1 3.0 0.0 4 11
- 0.63032 3 2 ack 40 ------- 1 3.0 0.0 4 11
r 0.63232 3 2 ack 40 ------- 1 3.0 0.0 3 10
+ 0.63232 2 0 ack 40 ------- 1 3.0 0.0 3 10
- 0.63232 2 0 ack 40 ------- 1 3.0 0.0 3 10
r 0.63864 2 3 tcp 1040 ------- 1 0.0 3.0 5 8
+ 0.63864 3 2 ack 40 ------- 1 3.0 0.0 5 12
- 0.63864 3 2 ack 40 ------- 1 3.0 0.0 5 12
r 0.64064 3 2 ack 40 ------- 1 3.0 0.0 4 11
+ 0.64064 2 0 ack 40 ------- 1 3.0 0.0 4 11
- 0.64064 2 0 ack 40 ------- 1 3.0 0.0 4 11
r 0.6424 2 0 ack 40 ------- 1 3.0 0.0 3 10
+ 0.6424 0 2 tcp 1040 ------- 1 0.0 3.0 7 13
- 0.6424 0 2 tcp 1040 ------- 1 0.0 3.0 7 13
+ 0.6424 0 2 tcp 1040 ------- 1 0.0 3.0 8 14
- 0.64448 0 2 tcp 1040 ------- 1 0.0 3.0 8 14
r 0.64696 2 3 tcp 1040 ------- 1 0.0 3.0 6 9
+ 0.64696 3 2 ack 40 ------- 1 3.0 0.0 6 15
- 0.64696 3 2 ack 40 ------- 1 3.0 0.0 6 15
r 0.64896 3 2 ack 40 ------- 1 3.0 0.0 5 12
+ 0.64896 2 0 ack 40 ------- 1 3.0 0.0 5 12
- 0.64896 2 0 ack 40 ------- 1 3.0 0.0 5 12
r 0.65072 2 0 ack 40 ------- 1 3.0 0.0 4 11
+ 0.65072 0 2 tcp 1040 ------- 1 0.0 3.0 9 16
- 0.65072 0 2 tcp 1040 ------- 1 0.0 3.0 9 16
+ 0.65072 0 2 tcp 1040 ------- 1 0.0 3.0 10 17
- 0.6528 0 2 tcp 1040 ------- 1 0.0 3.0 10 17
r 0.65448 0 2 tcp 1040 ------- 1 0.0 3.0 7 13
+ 0.65448 2 3 tcp 1040 ------- 1 0.0 3.0 7 13
- 0.65448 2 3 tcp 1040 ------- 1 0.0 3.0 7 13
r 0.65656 0 2 tcp 1040 ------- 1 0.0 3.0 8 14
+ 0.65656 2 3 tcp 1040 ------- 1 0.0 3.0 8 14
r 0.65728 3 2 ack 40 ------- 1 3.0 0.0 6 15
+ 0.65728 2 0 ack 40 ------- 1 3.0 0.0 6 15
- 0.65728 2 0 ack 40 ------- 1 3.0 0.0 6 15
r 0.65904 2 0 ack 40 ------- 1 3.0 0.0 5 12
+ 0.65904 0 2 tcp 1040 ------- 1 0.0 3.0 11 18
- 0.65904 0 2 tcp 1040 ------- 1 0.0 3.0 11 18
+ 0.65904 0 2 tcp 1040 ------- 1 0.0 3.0 12 19
- 0.66112 0 2 tcp 1040 ------- 1 0.0 3.0 12 19
r 0.6628 0 2 tcp 1040 ------- 1 0.0 3.0 9 16
+ 0.6628 2 3 tcp 1040 ------- 1 0.0 3.0 9 16
- 0.6628 2 3 tcp 1040 ------- 1 0.0 3.0 8 14
r 0.66488 0 2 tcp 1040 ------- 1 0.0 3.0 10 17
+ 0.66488 2 3 tcp 1040 ------- 1 0.0 3.0 10 17
r 0.66736 2 0 ack 40 ------- 1 3.0 0.0 6 15
+ 0.66736 0 2 tcp 1040 ------- 1 0.0 3.0 13 20
- 0.66736 0 2 tcp 1040 ------- 1 0.0 3.0 13 20
+ 0.66736 0 2 tcp 1040 ------- 1 0.0 3.0 14 21
- 0.66944 0 2 tcp 1040 ------- 1 0.0 3.0 14 21
r 0.67112 0 2 tcp 1040 ------- 1 0.0 3.0 11 18
+ 0.67112 2 3 tcp 1040 ------- 1 0.0 3.0 11 18
- 0.67112 2 3 tcp 1040 ------- 1 0.0 3.0 9 16
r 0.6728 2 3 tcp 1040 ------- 1 0.0 3.0 7 13
+ 0.6728 3 2 ack 40 ------- 1 3.0 0.0 7 22
- 0.6728 3 2 ack 40 ------- 1 3.0 0.0 7 22
r 0.6732 0 2 tcp 1040 ------- 1 0.0 3.0 12 19
+ 0.6732 2 3 tcp 1040 ------- 1 0.0 3.0 12 19
r 0.67944 0 2 tcp 1040 ------- 1 0.0 3.0 13 20
+ 0.67944 2 3 tcp 1040 ------- 1 0.0 3.0 13 20
- 0.67944 2 3 tcp 1040 ------- 1 0.0 3.0 10 17
r 0.68112 2 3 tcp 1040 ------- 1 0.0 3.0 8 14
+ 0.68112 3 2 ack 40 ------- 1 3.0 0.0 8 23
- 0.68112 3 2 ack 40 ------- 1 3.0 0.0 8 23
r 0.68152 0 2 tcp 1040 ------- 1 0.0 3.0 14 21
+ 0.68152 2 3 tcp 1040 ------- 1 0.0 3.0 14 21
r 0.68312 3 2 ack 40 ------- 1 3.0 0.0 7 22
+ 0.68312 2 0 ack 40 ------- 1 3.0 0.0 7 22
- 0.68312 2 0 ack 40 ------- 1 3.0 0.0 7 22
- 0.68776 2 3 tcp 1040 ------- 1 0.0 3.0 11 18
r 0.68944 2 3 tcp 1040 ------- 1 0.0 3.0 9 16
+ 0.68944 3 2 ack 40 ------- 1 3.0 0.0 9 24
- 0.68944 3 2 ack 40 ------- 1 3.0 0.0 9 24
r 0.69144 3 2 ack 40 ------- 1 3.0 0.0 8 23
+ 0.69144 2 0 ack 40 ------- 1 3.0 0.0 8 23
- 0.69144 2 0 ack 40 ------- 1 3.0 0.0 8 23
r 0.6932 2 0 ack 40 ------- 1 3.0 0.0 7 22
+ 0.6932 0 2 tcp 1040 ------- 1 0.0 3.0 15 25
- 0.6932 0 2 tcp 1040 ------- 1 0.0 3.0 15 25
+ 0.6932 0 2 tcp 1040 ------- 1 0.0 3.0 16 26
- 0.69528 0 2 tcp 1040 ------- 1 0.0 3.0 16 26
- 0.69608 2 3 tcp 1040 ------- 1 0.0 3.0 12 19
r 0.69776 2 3 tcp 1040 ------- 1 0.0 3.0 10 17
+ 0.69776 3 2 ack 40 ------- 1 3.0 0.0 10 27
- 0.69776 3 2 ack 40 ------- 1 3.0 0.0 10 27
r 0.69976 3 2 ack 40 ------- 1 3.0 0.0 9 24
+ 0.69976 2 0 ack 40 ------- 1 3.0 0.0 9 24
- 0.69976 2 0 ack 40 ------- 1 3.0 0.0 9 24
r 0.70152 2 0 ack 40 ------- 1 3.0 0.0 8 23
+ 0.70152 0 2 tcp 1040 ------- 1 0.0 3.0 17 28
- 0.70152 0 2 tcp 1040 ------- 1 0.0 3.0 17 28
+ 0.70152 0 2 tcp 1040 ------- 1 0.0 3.0 18 29
- 0.7036 0 2 tcp 1040 ------- 1 0.0 3.0 18 29
- 0.7044 2 3 tcp 1040 ------- 1 0.0 3.0 13 20
r 0.70528 0 2 tcp 1040 ------- 1 0.0 3.0 15 25
+ 0.70528 2 3 tcp 1040 ------- 1 0.0 3.0 15 25
r 0.70608 2 3 tcp 1040 ------- 1 0.0 3.0 11 18
+ 0.70608 3 2 ack 40 ------- 1 3.0 0.0 11 30
- 0.70608 3 2 ack 40 ------- 1 3.0 0.0 11 30
r 0.70736 0 2 tcp 1040 ------- 1 0.0 3.0 16 26
+ 0.70736 2 3 tcp 1040 ------- 1 0.0 3.0 16 26
r 0.70808 3 2 ack 40 ------- 1 3.0 0.0 10 27
+ 0.70808 2 0 ack 40 ------- 1 3.0 0.0 10 27
- 0.70808 2 0 ack 40 ------- 1 3.0 0.0 10 27
r 0.70984 2 0 ack 40 ------- 1 3.0 0.0 9 24
+ 0.70984 0 2 tcp 1040 ------- 1 0.0 3.0 19 31
- 0.70984 0 2 tcp 1040 ------- 1 0.0 3.0 19 31
+ 0.70984 0 2 tcp 1040 ------- 1 0.0 3.0 20 32
- 0.71192 0 2 tcp 1040 ------- 1 0.0 3.0 20 32
- 0.71272 2 3 tcp 1040 ------- 1 0.0 3.0 14 21
r 0.7136 0 2 tcp 1040 ------- 1 0.0 3.0 17 28
+ 0.7136 2 3 tcp 1040 ------- 1 0.0 3.0 17 28
r 0.7144 2 3 tcp 1040 ------- 1 0.0 3.0 12 19
+ 0.7144 3 2 ack 40 ------- 1 3.0 0.0 12 33
- 0.7144 3 2 ack 40 ------- 1 3.0 0.0 12 33
r 0.71568 0 2 tcp 1040 ------- 1 0.0 3.0 18 29
+ 0.71568 2 3 tcp 1040 ------- 1 0.0 3.0 18 29
r 0.7164 3 2 ack 40 ------- 1 3.0 0.0 11 30
+ 0.7164 2 0 ack 40 ------- 1 3.0 0.0 11 30
- 0.7164 2 0 ack 40 ------- 1 3.0 0.0 11 30
r 0.71816 2 0 ack 40 ------- 1 3.0 0.0 10 27
+ 0.71816 0 2 tcp 1040 ------- 1 0.0 3.0 21 34
- 0.71816 0 2 tcp 1040 ------- 1 0.0 3.0 21 34
+ 0.71816 0 2 tcp 1040 ------- 1 0.0 3.0 22 35
- 0.72024 0 2 tcp 1040 ------- 1 0.0 3.0 22 35
- 0.72104 2 3 tcp 1040 ------- 1 0.0 3.0 15 25
r 0.72192 0 2 tcp 1040 ------- 1 0.0 3.0 19 31
+ 0.72192 2 3 tcp 1040 ------- 1 0.0 3.0 19 31
r 0.72272 2 3 tcp 1040 ------- 1 0.0 3.0 13 20
+ 0.72272 3 2 ack 40 ------- 1 3.0 0.0 13 36
- 0.72272 3 2 ack 40 ------- 1 3.0 0.0 13 36
r 0.724 0 2 tcp 1040 ------- 1 0.0 3.0 20 32
+ 0.724 2 3 tcp 1040 ------- 1 0.0 3.0 20 32
r 0.72472 3 2 ack 40 ------- 1 3.0 0.0 12 33
+ 0.72472 2 0 ack 40 ------- 1 3.0 0.0 12 33
- 0.72472 2 0 ack 40 ------- 1 3.0 0.0 12 33
r 0.72648 2 0 ack 40 ------- 1 3.0 0.0 11 30
+ 0.72648 0 2 tcp 1040 ------- 1 0.0 3.0 23 37
- 0.72648 0 2 tcp 1040 ------- 1 0.0 3.0 23 37
+ 0.72648 0 2 tcp 1040 ------- 1 0.0 3.0 24 38
- 0.72856 0 2 tcp 1040 ------- 1 0.0 3.0 24 38
- 0.72936 2 3 tcp 1040 ------- 1 0.0 3.0 16 26
r 0.73024 0 2 tcp 1040 ------- 1 0.0 3.0 21 34
+ 0.73024 2 3 tcp 1040 ------- 1 0.0 3.0 21 34
r 0.73104 2 3 tcp 1040 ------- 1 0.0 3.0 14 21
+ 0.73104 3 2 ack 40 ------- 1 3.0 0.0 14 39
- 0.73104 3 2 ack 40 ------- 1 3.0 0.0 14 39
r 0.73232 0 2 tcp 1040 ------- 1 0.0 3.0 22 35
+ 0.73232 2 3 tcp 1040 ------- 1 0.0 3.0 22 35
r 0.73304 3 2 ack 40 ------- 1 3.0 0.0 13 36
+ 0.73304 2 0 ack 40 ------- 1 3.0 0.0 13 36
- 0.73304 2 0 ack 40 ------- 1 3.0 0.0 13 36
r 0.7348 2 0 ack 40 ------- 1 3.0 0.0 12 33
+ 0.7348 0 2 tcp 1040 ------- 1 0.0 3.0 25 40
- 0.7348 0 2 tcp 1040 ------- 1 0.0 3.0 25 40
+ 0.7348 0 2 tcp 1040 ------- 1 0.0 3.0 26 41
- 0.73688 0 2 tcp 1040 ------- 1 0.0 3.0 26 41
- 0.73768 2 3 tcp 1040 ------- 1 0.0 3.0 17 28
r 0.73856 0 2 tcp 1040 ------- 1 0.0 3.0 23 37
+ 0.73856 2 3 tcp 1040 ------- 1 0.0 3.0 23 37
r 0.73936 2 3 tcp 1040 ------- 1 0.0 3.0 15 25
+ 0.73936 3 2 ack 40 ------- 1 3.0 0.0 15 42
- 0.73936 3 2 ack 40 ------- 1 3.0 0.0 15 42
r 0.74064 0 2 tcp 1040 ------- 1 0.0 3.0 24 38
+ 0.74064 2 3 tcp 1040 ------- 1 0.0 3.0 24 38
r 0.74136 3 2 ack 40 ------- 1 3.0 0.0 14 39
+ 0.74136 2 0 ack 40 ------- 1 3.0 0.0 14 39
- 0.74136 2 0 ack 40 ------- 1 3.0 0.0 14 39
r 0.74312 2 0 ack 40 ------- 1 3.0 0.0 13 36
+ 0.74312 0 2 tcp 1040 ------- 1 0.0 3.0 27 43
- 0.74312 0 2 tcp 1040 ------- 1 0.0 3.0 27 43
+ 0.74312 0 2 tcp 1040 ------- 1 0.0 3.0 28 44
- 0.7452 0 2 tcp 1040 ------- 1 0.0 3.0 28 44
- 0.746 2 3 tcp 1040 ------- 1 0.0 3.0 18 29
r 0.74688 0 2 tcp 1040 ------- 1 0.0 3.0 25 40
+ 0.74688 2 3 tcp 1040 ------- 1 0.0 3.0 25 40
r 0.74768 2 3 tcp 1040 ------- 1 0.0 3.0 16 26
+ 0.74768 3 2 ack 40 ------- 1 3.0 0.0 16 45
- 0.74768 3 2 ack 40 ------- 1 3.0 0.0 16 45
r 0.74896 0 2 tcp 1040 ------- 1 0.0 3.0 26 41
+ 0.74896 2 3 tcp 1040 ------- 1 0.0 3.0 26 41
r 0.74968 3 2 ack 40 ------- 1 3.0 0.0 15 42
+ 0.74968 2 0 ack 40 ------- 1 3.0 0.0 15 42
- 0.74968 2 0 ack 40 ------- 1 3.0 0.0 15 42
r 0.75144 2 0 ack 40 ------- 1 3.0 0.0 14 39
+ 0.75144 0 2 tcp 1040 ------- 1 0.0 3.0 29 46
- 0.75144 0 2 tcp 1040 ------- 1 0.0 3.0 29 46
+ 0.75144 0 2 tcp 1040 ------- 1 0.0 3.0 30 47
- 0.75352 0 2 tcp 1040 ------- 1 0.0 3.0 30 47
- 0.75432 2 3 tcp 1040 ------- 1 0.0 3.0 19 31
r 0.7552 0 2 tcp 1040 ------- 1 0.0 3.0 27 43
+ 0.7552 2 3 tcp 1040 ------- 1 0.0 3.0 27 43
r 0.756 2 3 tcp 1040 ------- 1 0.0 3.0 17 28
+ 0.756 3 2 ack 40 ------- 1 3.0 0.0 17 48
- 0.756 3 2 ack 40 ------- 1 3.0 0.0 17 48
r 0.75728 0 2 tcp 1040 ------- 1 0.0 3.0 28 44
+ 0.75728 2 3 tcp 1040 ------- 1 0.0 3.0 28 44
r 0.758 3 2 ack 40 ------- 1 3.0 0.0 16 45
+ 0.758 2 0 ack 40 ------- 1 3.0 0.0 16 45
- 0.758 2 0 ack 40 ------- 1 3.0 0.0 16 45
r 0.75976 2 0 ack 40 ------- 1 3.0 0.0 15 42
+ 0.75976 0 2 tcp 1040 ------- 1 0.0 3.0 31 49
- 0.75976 0 2 tcp 1040 ------- 1 0.0 3.0 31 49
+ 0.75976 0 2 tcp 1040 ------- 1 0.0 3.0 32 50
- 0.76184 0 2 tcp 1040 ------- 1 0.0 3.0 32 50
- 0.76264 2 3 tcp 1040 ------- 1 0.0 3.0 20 32
r 0.76352 0 2 tcp 1040 ------- 1 0.0 3.0 29 46
+ 0.76352 2 3 tcp 1040 ------- 1 0.0 3.0 29 46
r 0.76432 2 3 tcp 1040 ------- 1 0.0 3.0 18 29
+ 0.76432 3 2 ack 40 ------- 1 3.0 0.0 18 51
- 0.76432 3 2 ack 40 ------- 1 3.0 0.0 18 51
r 0.7656 0 2 tcp 1040 ------- 1 0.0 3.0 30 47
+ 0.7656 2 3 tcp 1040 ------- 1 0.0 3.0 30 47
r 0.76632 3 2 ack 40 ------- 1 3.0 0.0 17 48
+ 0.76632 2 0 ack 40 ------- 1 3.0 0.0 17 48
- 0.76632 2 0 ack 40 ------- 1 3.0 0.0 17 48
r 0.76808 2 0 ack 40 ------- 1 3.0 0.0 16 45
+ 0.76808 0 2 tcp 1040 ------- 1 0.0 3.0 33 52
- 0.76808 0 2 tcp 1040 ------- 1 0.0 3.0 33 52
+ 0.76808 0 2 tcp 1040 ------- 1 0.0 3.0 34 53
- 0.77016 0 2 tcp 1040 ------- 1 0.0 3.0 34 53
- 0.77096 2 3 tcp 1040 ------- 1 0.0 3.0 21 34
r 0.77184 0 2 tcp 1040 ------- 1 0.0 3.0 31 49
+ 0.77184 2 3 tcp 1040 ------- 1 0.0 3.0 31 49
r 0.77264 2 3 tcp 1040 ------- 1 0.0 3.0 19 31
+ 0.77264 3 2 ack 40 ------- 1 3.0 0.0 19 54
- 0.77264 3 2 ack 40 ------- 1 3.0 0.0 19 54
r 0.77392 0 2 tcp 1040 ------- 1 0.0 3.0 32 50
+ 0.77392 2 3 tcp 1040 ------- 1 0.0 3.0 32 50
r 0.77464 3 2 ack 40 ------- 1 3.0 0.0 18 51
+ 0.77464 2 0 ack 40 ------- 1 3.0 0.0 18 51
- 0.77464 2 0 ack 40 ------- 1 3.0 0.0 18 51
r 0.7764 2 0 ack 40 ------- 1 3.0 0.0 17 48
+ 0.7764 0 2 tcp 1040 ------- 1 0.0 3.0 35 55
- 0.7764 0 2 tcp 1040 ------- 1 0.0 3.0 35 55
+ 0.7764 0 2 tcp 1040 ------- 1 0.0 3.0 36 56
- 0.77848 0 2 tcp 1040 ------- 1 0.0 3.0 36 56
- 0.77928 2 3 tcp 1040 ------- 1 0.0 3.0 22 35
r 0.78016 0 2 tcp 1040 ------- 1 0.0 3.0 33 52
+ 0.78016 2 3 tcp 1040 ------- 1 0.0 3.0 33 52
r 0.78096 2 3 tcp 1040 ------- 1 0.0 3.0 20 32
+ 0.78096 3 2 ack 40 ------- 1 3.0 0.0 20 57
- 0.78096 3 2 ack 40 ------- 1 3.0 0.0 20 57
r 0.78224 0 2 tcp 1040 ------- 1 0.0 3.0 34 53
+ 0.78224 2 3 tcp 1040 ------- 1 0.0 3.0 34 53
r 0.78296 3 2 ack 40 ------- 1 3.0 0.0 19 54
+ 0.78296 2 0 ack 40 ------- 1 3.0 0.0 19 54
- 0.78296 2 0 ack 40 ------- 1 3.0 0.0 19 54
r 0.78472 2 0 ack 40 ------- 1 3.0 0.0 18 51
+ 0.78472 0 2 tcp 1040 ------- 1 0.0 3.0 37 58
- 0.78472 0 2 tcp 1040 ------- 1 0.0 3.0 37 58
+ 0.78472 0 2 tcp 1040 ------- 1 0.0 3.0 38 59
- 0.7868 0 2 tcp 1040 ------- 1 0.0 3.0 38 59
- 0.7876 2 3 tcp 1040 ------- 1 0.0 3.0 23 37
r 0.78848 0 2 tcp 1040 ------- 1 0.0 3.0 35 55
+ 0.78848 2 3 tcp 1040 ------- 1 0.0 3.0 35 55
r 0.78928 2 3 tcp 1040 ------- 1 0.0 3.0 21 34
+ 0.78928 3 2 ack 40 ------- 1 3.0 0.0 21 60
- 0.78928 3 2 ack 40 ------- 1 3.0 0.0 21 60
r 0.79056 0 2 tcp 1040 ------- 1 0.0 3.0 36 56
+ 0.79056 2 3 tcp 1040 ------- 1 0.0 3.0 36 56
r 0.79128 3 2 ack 40 ------- 1 3.0 0.0 20 57
+ 0.79128 2 0 ack 40 ------- 1 3.0 0.0 20 57
- 0.79128 2 0 ack 40 ------- 1 3.0 0.0 20 57
r 0.79304 2 0 ack 40 ------- 1 3.0 0.0 19 54
+ 0.79304 0 2 tcp 1040 ------- 1 0.0 3.0 39 61
- 0.79304 0 2 tcp 1040 ------- 1 0.0 3.0 39 61
- 0.79592 2 3 tcp 1040 ------- 1 0.0 3.0 24 38
r 0.7968 0 2 tcp 1040 ------- 1 0.0 3.0 37 58
+ 0.7968 2 3 tcp 1040 ------- 1 0.0 3.0 37 58
r 0.7976 2 3 tcp 1040 ------- 1 0.0 3.0 22 35
+ 0.7976 3 2 ack 40 ------- 1 3.0 0.0 22 62
- 0.7976 3 2 ack 40 ------- 1 3.0 0.0 22 62
r 0.79888 0 2 tcp 1040 ------- 1 0.0 3.0 38 59
+ 0.79888 2 3 tcp 1040 ------- 1 0.0 3.0 38 59
r 0.7996 3 2 ack 40 ------- 1 3.0 0.0 21 60
+ 0.7996 2 0 ack 40 ------- 1 3.0 0.0 21 60
- 0.7996 2 0 ack 40 ------- 1 3.0 0.0 21 60
r 0.80136 2 0 ack 40 ------- 1 3.0 0.0 20 57
+ 0.80136 0 2 tcp 1040 ------- 1 0.0 3.0 40 63
- 0.80136 0 2 tcp 1040 ------- 1 0.0 3.0 40 63
- 0.80424 2 3 tcp 1040 ------- 1 0.0 3.0 25 40
r 0.80512 0 2 tcp 1040 ------- 1 0.0 3.0 39 61
+ 0.80512 2 3 tcp 1040 ------- 1 0.0 3.0 39 61
r 0.80592 2 3 tcp 1040 ------- 1 0.0 3.0 23 37
+ 0.80592 3 2 ack 40 ------- 1 3.0 0.0 23 64
- 0.80592 3 2 ack 40 ------- 1 3.0 0.0 23 64
r 0.80792 3 2 ack 40 ------- 1 3.0 0.0 22 62
+ 0.80792 2 0 ack 40 ------- 1 3.0 0.0 22 62
- 0.80792 2 0 ack 40 ------- 1 3.0 0.0 22 62
r 0.80968 2 0 ack 40 ------- 1 3.0 0.0 21 60
+ 0.80968 0 2 tcp 1040 ------- 1 0.0 3.0 41 65
- 0.80968 0 2 tcp 1040 ------- 1 0.0 3.0 41 65
- 0.81256 2 3 tcp 1040 ------- 1 0.0 3.0 26 41
r 0.81344 0 2 tcp 1040 ------- 1 0.0 3.0 40 63
+ 0.81344 2 3 tcp 1040 ------- 1 0.0 3.0 40 63
r 0.81424 2 3 tcp 1040 ------- 1 0.0 3.0 24 38
+ 0.81424 3 2 ack 40 ------- 1 3.0 0.0 24 66
- 0.81424 3 2 ack 40 ------- 1 3.0 0.0 24 66
r 0.81624 3 2 ack 40 ------- 1 3.0 0.0 23 64
+ 0.81624 2 0 ack 40 ------- 1 3.0 0.0 23 64
- 0.81624 2 0 ack 40 ------- 1 3.0 0.0 23 64
r 0.818 2 0 ack 40 ------- 1 3.0 0.0 22 62
+ 0.818 0 2 tcp 1040 ------- 1 0.0 3.0 42 67
- 0.818 0 2 tcp 1040 ------- 1 0.0 3.0 42 67
- 0.82088 2 3 tcp 1040 ------- 1 0.0 3.0 27 43
r 0.82176 0 2 tcp 1040 ------- 1 0.0 3.0 41 65
+ 0.82176 2 3 tcp 1040 ------- 1 0.0 3.0 41 65
r 0.82256 2 3 tcp 1040 ------- 1 0.0 3.0 25 40
+ 0.82256 3 2 ack 40 ------- 1 3.0 0.0 25 68
- 0.82256 3 2 ack 40 ------- 1 3.0 0.0 25 68
r 0.82456 3 2 ack 40 ------- 1 3.0 0.0 24 66
+ 0.82456 2 0 ack 40 ------- 1 3.0 0.0 24 66
- 0.82456 2 0 ack 40 ------- 1 3.0 0.0 24 66
r 0.82632 2 0 ack 40 ------- 1 3.0 0.0 23 64
+ 0.82632 0 2 tcp 1040 ------- 1 0.0 3.0 43 69
- 0.82632 0 2 tcp 1040 ------- 1 0.0 3.0 43 69
- 0.8292 2 3 tcp 1040 ------- 1 0.0 3.0 28 44
r 0.83008 0 2 tcp 1040 ------- 1 0.0 3.0 42 67
+ 0.83008 2 3 tcp 1040 ------- 1 0.0 3.0 42 67
r 0.83088 2 3 tcp 1040 ------- 1 0.0 3.0 26 41
+ 0.83088 3 2 ack 40 ------- 1 3.0 0.0 26 70
- 0.83088 3 2 ack 40 ------- 1 3.0 0.0 26 70
r 0.83288 3 2 ack 40 ------- 1 3.0 0.0 25 68
+ 0.83288 2 0 ack 40 ------- 1 3.0 0.0 25 68
- 0.83288 2 0 ack 40 ------- 1 3.0 0.0 25 68
r 0.83464 2 0 ack 40 ------- 1 3.0 0.0 24 66
+ 0.83464 0 2 tcp 1040 ------- 1 0.0 3.0 44 71
- 0.83464 0 2 tcp 1040 ------- 1 0.0 3.0 44 71
- 0.83752 2 3 tcp 1040 ------- 1 0.0 3.0 29 46
r 0.8384 0 2 tcp 1040 ------- 1 0.0 3.0 43 69
+ 0.8384 2 3 tcp 1040 ------- 1 0.0 3.0 43 69
r 0.8392 2 3 tcp 1040 ------- 1 0.0 3.0 27 43
+ 0.8392 3 2 ack 40 ------- 1 3.0 0.0 27 72
- 0.8392 3 2 ack 40 ------- 1 3.0 0.0 27 72
r 0.8412 3 2 ack 40 ------- 1 3.0 0.0 26 70
+ 0.8412 2 0 ack 40 ------- 1 3.0 0.0 26 70
- 0.8412 2 0 ack 40 ------- 1 3.0 0.0 26 70
r 0.84296 2 0 ack 40 ------- 1 3.0 0.0 25 68
+ 0.84296 0 2 tcp 1040 ------- 1 0.0 3.0 45 73
- 0.84296 0 2 tcp 1040 ------- 1 0.0 3.0 45 73
- 0.84584 2 3 tcp 1040 ------- 1 0.0 3.0 30 47
r 0.84672 0 2 tcp 1040 ------- 1 0.0 3.0 44 71
+ 0.84672 2 3 tcp 1040 ------- 1 0.0 3.0 44 71
r 0.84752 2 3 tcp 1040 ------- 1 0.0 3.0 28 44
+ 0.84752 3 2 ack 40 ------- 1 3.0 0.0 28 74
- 0.84752 3 2 ack 40 ------- 1 3.0 0.0 28 74
r 0.84952 3 2 ack 40 ------- 1 3.0 0.0 27 72
+ 0.84952 2 0 ack 40 ------- 1 3.0 0.0 27 72
- 0.84952 2 0 ack 40 ------- 1 3.0 0.0 27 72
r 0.85128 2 0 ack 40 ------- 1 3.0 0.0 26 70
+ 0.85128 0 2 tcp 1040 ------- 1 0.0 3.0 46 75
- 0.85128 0 2 tcp 1040 ------- 1 0.0 3.0 46 75
- 0.85416 2 3 tcp 1040 ------- 1 0.0 3.0 31 49
r 0.85504 0 2 tcp 1040 ------- 1 0.0 3.0 45 73
+ 0.85504 2 3 tcp 1040 ------- 1 0.0 3.0 45 73
r 0.85584 2 3 tcp 1040 ------- 1 0.0 3.0 29 46
+ 0.85584 3 2 ack 40 ------- 1 3.0 0.0 29 76
- 0.85584 3 2 ack 40 ------- 1 3.0 0.0 29 76
r 0.85784 3 2 ack 40 ------- 1 3.0 0.0 28 74
+ 0.85784 2 0 ack 40 ------- 1 3.0 0.0 28 74
- 0.85784 2 0 ack 40 ------- 1 3.0 0.0 28 74
r 0.8596 2 0 ack 40 ------- 1 3.0 0.0 27 72
+ 0.8596 0 2 tcp 1040 ------- 1 0.0 3.0 47 77
- 0.8596 0 2 tcp 1040 ------- 1 0.0 3.0 47 77
- 0.86248 2 3 tcp 1040 ------- 1 0.0 3.0 32 50
r 0.86336 0 2 tcp 1040 ------- 1 0.0 3.0 46 75
+ 0.86336 2 3 tcp 1040 ------- 1 0.0 3.0 46 75
r 0.86416 2 3 tcp 1040 ------- 1 0.0 3.0 30 47
+ 0.86416 3 2 ack 40 ------- 1 3.0 0.0 30 78
- 0.86416 3 2 ack 40 ------- 1 3.0 0.0 30 78
r 0.86616 3 2 ack 40 ------- 1 3.0 0.0 29 76
+ 0.86616 2 0 ack 40 ------- 1 3.0 0.0 29 76
- 0.86616 2 0 ack 40 ------- 1 3.0 0.0 29 76
r 0.86792 2 0 ack 40 ------- 1 3.0 0.0 28 74
+ 0.86792 0 2 tcp 1040 ------- 1 0.0 3.0 48 79
- 0.86792 0 2 tcp 1040 ------- 1 0.0 3.0 48 79
- 0.8708 2 3 tcp 1040 ------- 1 0.0 3.0 33 52
r 0.87168 0 2 tcp 1040 ------- 1 0.0 3.0 47 77
+ 0.87168 2 3 tcp 1040 ------- 1 0.0 3.0 47 77
r 0.87248 2 3 tcp 1040 ------- 1 0.0 3.0 31 49
+ 0.87248 3 2 ack 40 ------- 1 3.0 0.0 31 80
- 0.87248 3 2 ack 40 ------- 1 3.0 0.0 31 80
r 0.87448 3 2 ack 40 ------- 1 3.0 0.0 30 78
+ 0.87448 2 0 ack 40 ------- 1 3.0 0.0 30 78
- 0.87448 2 0 ack 40 ------- 1 3.0 0.0 30 78
r 0.87624 2 0 ack 40 ------- 1 3.0 0.0 29 76
+ 0.87624 0 2 tcp 1040 ------- 1 0.0 3.0 49 81
- 0.87624 0 2 tcp 1040 ------- 1 0.0 3.0 49 81
- 0.87912 2 3 tcp 1040 ------- 1 0.0 3.0 34 53
r 0.88 0 2 tcp 1040 ------- 1 0.0 3.0 48 79
+ 0.88 2 3 tcp 1040 ------- 1 0.0 3.0 48 79
r 0.8808 2 3 tcp 1040 ------- 1 0.0 3.0 32 50
+ 0.8808 3 2 ack 40 ------- 1 3.0 0.0 32 82
- 0.8808 3 2 ack 40 ------- 1 3.0 0.0 32 82
r 0.8828 3 2 ack 40 ------- 1 3.0 0.0 31 80
+ 0.8828 2 0 ack 40 ------- 1 3.0 0.0 31 80
- 0.8828 2 0 ack 40 ------- 1 3.0 0.0 31 80
r 0.88456 2 0 ack 40 ------- 1 3.0 0.0 30 78
+ 0.88456 0 2 tcp 1040 ------- 1 0.0 3.0 50 83
- 0.88456 0 2 tcp 1040 ------- 1 0.0 3.0 50 83
- 0.88744 2 3 tcp 1040 ------- 1 0.0 3.0 35 55
r 0.88832 0 2 tcp 1040 ------- 1 0.0 3.0 49 81
+ 0.88832 2 3 tcp 1040 ------- 1 0.0 3.0 49 81
r 0.88912 2 3 tcp 1040 ------- 1 0.0 3.0 33 52
+ 0.88912 3 2 ack 40 ------- 1 3.0 0.0 33 84
- 0.88912 3 2 ack 40 ------- 1 3.0 0.0 33 84
r 0.89112 3 2 ack 40 ------- 1 3.0 0.0 32 82
+ 0.89112 2 0 ack 40 ------- 1 3.0 0.0 32 82
- 0.89112 2 0 ack 40 ------- 1 3.0 0.0 32 82
r 0.89288 2 0 ack 40 ------- 1 3.0 0.0 31 80
+ 0.89288 0 2 tcp 1040 ------- 1 0.0 3.0 51 85
- 0.89288 0 2 tcp 1040 ------- 1 0.0 3.0 51 85
- 0.89576 2 3 tcp 1040 ------- 1 0.0 3.0 36 56
r 0.89664 0 2 tcp 1040 ------- 1 0.0 3.0 50 83
+ 0.89664 2 3 tcp 1040 ------- 1 0.0 3.0 50 83
r 0.89744 2 3 tcp 1040 ------- 1 0.0 3.0 34 53
+ 0.89744 3 2 ack 40 ------- 1 3.0 0.0 34 86
- 0.89744 3 2 ack 40 ------- 1 3.0 0.0 34 86
r 0.89944 3 2 ack 40 ------- 1 3.0 0.0 33 84
+ 0.89944 2 0 ack 40 ------- 1 3.0 0.0 33 84
- 0.89944 2 0 ack 40 ------- 1 3.0 0.0 33 84
r 0.9012 2 0 ack 40 ------- 1 3.0 0.0 32 82
+ 0.9012 0 2 tcp 1040 ------- 1 0.0 3.0 52 87
- 0.9012 0 2 tcp 1040 ------- 1 0.0 3.0 52 87
- 0.90408 2 3 tcp 1040 ------- 1 0.0 3.0 37 58
r 0.90496 0 2 tcp 1040 ------- 1 0.0 3.0 51 85
+ 0.90496 2 3 tcp 1040 ------- 1 0.0 3.0 51 85
r 0.90576 2 3 tcp 1040 ------- 1 0.0 3.0 35 55
+ 0.90576 3 2 ack 40 ------- 1 3.0 0.0 35 88
- 0.90576 3 2 ack 40 ------- 1 3.0 0.0 35 88
r 0.90776 3 2 ack 40 ------- 1 3.0 0.0 34 86
+ 0.90776 2 0 ack 40 ------- 1 3.0 0.0 34 86
- 0.90776 2 0 ack 40 ------- 1 3.0 0.0 34 86
r 0.90952 2 0 ack 40 ------- 1 3.0 0.0 33 84
+ 0.90952 0 2 tcp 1040 ------- 1 0.0 3.0 53 89
- 0.90952 0 2 tcp 1040 ------- 1 0.0 3.0 53 89
- 0.9124 2 3 tcp 1040 ------- 1 0.0 3.0 38 59
r 0.91328 0 2 tcp 1040 ------- 1 0.0 3.0 52 87
+ 0.91328 2 3 tcp 1040 ------- 1 0.0 3.0 52 87
r 0.91408 2 3 tcp 1040 ------- 1 0.0 3.0 36 56
+ 0.91408 3 2 ack 40 ------- 1 3.0 0.0 36 90
- 0.91408 3 2 ack 40 ------- 1 3.0 0.0 36 90
r 0.91608 3 2 ack 40 ------- 1 3.0 0.0 35 88
+ 0.91608 2 0 ack 40 ------- 1 3.0 0.0 35 88
- 0.91608 2 0 ack 40 ------- 1 3.0 0.0 35 88
r 0.91784 2 0 ack 40 ------- 1 3.0 0.0 34 86
+ 0.91784 0 2 tcp 1040 ------- 1 0.0 3.0 54 91
- 0.91784 0 2 tcp 1040 ------- 1 0.0 3.0 54 91
- 0.92072 2 3 tcp 1040 ------- 1 0.0 3.0 39 61
r 0.9216 0 2 tcp 1040 ------- 1 0.0 3.0 53 89
+ 0.9216 2 3 tcp 1040 ------- 1 0.0 3.0 53 89
r 0.9224 2 3 tcp 1040 ------- 1 0.0 3.0 37 58
+ 0.9224 3 2 ack 40 ------- 1 3.0 0.0 37 92
- 0.9224 3 2 ack 40 ------- 1 3.0 0.0 37 92
r 0.9244 3 2 ack 40 ------- 1 3.0 0.0 36 90
+ 0.9244 2 0 ack 40 ------- 1 3.0 0.0 36 90
- 0.9244 2 0 ack 40 ------- 1 3.0 0.0 36 90
r 0.92616 2 0 ack 40 ------- 1 3.0 0.0 35 88
+ 0.92616 0 2 tcp 1040 ------- 1 0.0 3.0 55 93
- 0.92616 0 2 tcp 1040 ------- 1 0.0 3.0 55 93
- 0.92904 2 3 tcp 1040 ------- 1 0.0 3.0 40 63
r 0.92992 0 2 tcp 1040 ------- 1 0.0 3.0 54 91
+ 0.92992 2 3 tcp 1040 ------- 1 0.0 3.0 54 91
r 0.93072 2 3 tcp 1040 ------- 1 0.0 3.0 38 59
+ 0.93072 3 2 ack 40 ------- 1 3.0 0.0 38 94
- 0.93072 3 2 ack 40 ------- 1 3.0 0.0 38 94
r 0.93272 3 2 ack 40 ------- 1 3.0 0.0 37 92
+ 0.93272 2 0 ack 40 ------- 1 3.0 0.0 37 92
- 0.93272 2 0 ack 40 ------- 1 3.0 0.0 37 92
r 0.93448 2 0 ack 40 ------- 1 3.0 0.0 36 90
+ 0.93448 0 2 tcp 1040 ------- 1 0.0 3.0 56 95
- 0.93448 0 2 tcp 1040 ------- 1 0.0 3.0 56 95
- 0.93736 2 3 tcp 1040 ------- 1 0.0 3.0 41 65
r 0.93824 0 2 tcp 1040 ------- 1 0.0 3.0 55 93
+ 0.93824 2 3 tcp 1040 ------- 1 0.0 3.0 55 93
r 0.93904 2 3 tcp 1040 ------- 1 0.0 3.0 39 61
+ 0.93904 3 2 ack 40 ------- 1 3.0 0.0 39 96
- 0.93904 3 2 ack 40 ------- 1 3.0 0.0 39 96
r 0.94104 3 2 ack 40 ------- 1 3.0 0.0 38 94
+ 0.94104 2 0 ack 40 ------- 1 3.0 0.0 38 94
- 0.94104 2 0 ack 40 ------- 1 3.0 0.0 38 94
r 0.9428 2 0 ack 40 ------- 1 3.0 0.0 37 92
+ 0.9428 0 2 tcp 1040 ------- 1 0.0 3.0 57 97
- 0.9428 0 2 tcp 1040 ------- 1 0.0 3.0 57 97
- 0.94568 2 3 tcp 1040 ------- 1 0.0 3.0 42 67
r 0.94656 0 2 tcp 1040 ------- 1 0.0 3.0 56 95
+ 0.94656 2 3 tcp 1040 ------- 1 0.0 3.0 56 95
r 0.94736 2 3 tcp 1040 ------- 1 0.0 3.0 40 63
+ 0.94736 3 2 ack 40 ------- 1 3.0 0.0 40 98
- 0.94736 3 2 ack 40 ------- 1 3.0 0.0 40 98
r 0.94936 3 2 ack 40 ------- 1 3.0 0.0 39 96
+ 0.94936 2 0 ack 40 ------- 1 3.0 0.0 39 96
- 0.94936 2 0 ack 40 ------- 1 3.0 0.0 39 96
r 0.95112 2 0 ack 40 ------- 1 3.0 0.0 38 94
+ 0.95112 0 2 tcp 1040 ------- 1 0.0 3.0 58 99
- 0.95112 0 2 tcp 1040 ------- 1 0.0 3.0 58 99
- 0.954 2 3 tcp 1040 ------- 1 0.0 3.0 43 69
r 0.95488 0 2 tcp 1040 ------- 1 0.0 3.0 57 97
+ 0.95488 2 3 tcp 1040 ------- 1 0.0 3.0 57 97
r 0.95568 2 3 tcp 1040 ------- 1 0.0 3.0 41 65
+ 0.95568 3 2 ack 40 ------- 1 3.0 0.0 41 100
- 0.95568 3 2 ack 40 ------- 1 3.0 0.0 41 100
r 0.95768 3 2 ack 40 ------- 1 3.0 0.0 40 98
+ 0.95768 2 0 ack 40 ------- 1 3.0 0.0 40 98
- 0.95768 2 0 ack 40 ------- 1 3.0 0.0 40 98
r 0.95944 2 0 ack 40 ------- 1 3.0 0.0 39 96
+ 0.95944 0 2 tcp 1040 ------- 1 0.0 3.0 59 101
- 0.95944 0 2 tcp 1040 ------- 1 0.0 3.0 59 101
- 0.96232 2 3 tcp 1040 ------- 1 0.0 3.0 44 71
r 0.9632 0 2 tcp 1040 ------- 1 0.0 3.0 58 99
+ 0.9632 2 3 tcp 1040 ------- 1 0.0 3.0 58 99
r 0.964 2 3 tcp 1040 ------- 1 0.0 3.0 42 67
+ 0.964 3 2 ack 40 ------- 1 3.0 0.0 42 102
- 0.964 3 2 ack 40 ------- 1 3.0 0.0 42 102
r 0.966 3 2 ack 40 ------- 1 3.0 0.0 41 100
+ 0.966 2 0 ack 40 ------- 1 3.0 0.0 41 100
- 0.966 2 0 ack 40 ------- 1 3.0 0.0 41 100
r 0.96776 2 0 ack 40 ------- 1 3.0 0.0 40 98
+ 0.96776 0 2 tcp 1040 ------- 1 0.0 3.0 60 103
- 0.96776 0 2 tcp 1040 ------- 1 0.0 3.0 60 103
- 0.97064 2 3 tcp 1040 ------- 1 0.0 3.0 45 73
r 0.97152 0 2 tcp 1040 ------- 1 0.0 3.0 59 101
+ 0.97152 2 3 tcp 1040 ------- 1 0.0 3.0 59 101
r 0.97232 2 3 tcp 1040 ------- 1 0.0 3.0 43 69
+ 0.97232 3 2 ack 40 ------- 1 3.0 0.0 43 104
- 0.97232 3 2 ack 40 ------- 1 3.0 0.0 43 104
r 0.97432 3 2 ack 40 ------- 1 3.0 0.0 42 102
+ 0.97432 2 0 ack 40 ------- 1 3.0 0.0 42 102
- 0.97432 2 0 ack 40 ------- 1 3.0 0.0 42 102
r 0.97608 2 0 ack 40 ------- 1 3.0 0.0 41 100
+ 0.97608 0 2 tcp 1040 ------- 1 0.0 3.0 61 105
- 0.97608 0 2 tcp 1040 ------- 1 0.0 3.0 61 105
- 0.97896 2 3 tcp 1040 ------- 1 0.0 3.0 46 75
r 0.97984 0 2 tcp 1040 ------- 1 0.0 3.0 60 103
+ 0.97984 2 3 tcp 1040 ------- 1 0.0 3.0 60 103
r 0.98064 2 3 tcp 1040 ------- 1 0.0 3.0 44 71
+ 0.98064 3 2 ack 40 ------- 1 3.0 0.0 44 106
- 0.98064 3 2 ack 40 ------- 1 3.0 0.0 44 106
r 0.98264 3 2 ack 40 ------- 1 3.0 0.0 43 104
+ 0.98264 2 0 ack 40 ------- 1 3.0 0.0 43 104
- 0.98264 2 0 ack 40 ------- 1 3.0 0.0 43 104
r 0.9844 2 0 ack 40 ------- 1 3.0 0.0 42 102
+ 0.9844 0 2 tcp 1040 ------- 1 0.0 3.0 62 107
- 0.9844 0 2 tcp 1040 ------- 1 0.0 3.0 62 107
- 0.98728 2 3 tcp 1040 ------- 1 0.0 3.0 47 77
r 0.98816 0 2 tcp 1040 ------- 1 0.0 3.0 61 105
+ 0.98816 2 3 tcp 1040 ------- 1 0.0 3.0 61 105
r 0.98896 2 3 tcp 1040 ------- 1 0.0 3.0 45 73
+ 0.98896 3 2 ack 40 ------- 1 3.0 0.0 45 108
- 0.98896 3 2 ack 40 ------- 1 3.0 0.0 45 108
r 0.99096 3 2 ack 40 ------- 1 3.0 0.0 44 106
+ 0.99096 2 0 ack 40 ------- 1 3.0 0.0 44 106
- 0.99096 2 0 ack 40 ------- 1 3.0 0.0 44 106
r 0.99272 2 0 ack 40 ------- 1 3.0 0.0 43 104
+ 0.99272 0 2 tcp 1040 ------- 1 0.0 3.0 63 109
- 0.99272 0 2 tcp 1040 ------- 1 0.0 3.0 63 109
- 0.9956 2 3 tcp 1040 ------- 1 0.0 3.0 48 79
r 0.99648 0 2 tcp 1040 ------- 1 0.0 3.0 62 107
+ 0.99648 2 3 tcp 1040 ------- 1 0.0 3.0 62 107
r 0.99728 2 3 tcp 1040 ------- 1 0.0 3.0 46 75
+ 0.99728 3 2 ack 40 ------- 1 3.0 0.0 46 110
- 0.99728 3 2 ack 40 ------- 1 3.0 0.0 46 110
r 0.99928 3 2 ack 40 ------- 1 3.0 0.0 45 108
+ 0.99928 2 0 ack 40 ------- 1 3.0 0.0 45 108
- 0.99928 2 0 ack 40 ------- 1 3.0 0.0 45 108
r 1.00104 2 0 ack 40 ------- 1 3.0 0.0 44 106
+ 1.00104 0 2 tcp 1040 ------- 1 0.0 3.0 64 111
- 1.00104 0 2 tcp 1040 ------- 1 0.0 3.0 64 111
- 1.00392 2 3 tcp 1040 ------- 1 0.0 3.0 49 81
r 1.0048 0 2 tcp 1040 ------- 1 0.0 3.0 63 109
+ 1.0048 2 3 tcp 1040 ------- 1 0.0 3.0 63 109
r 1.0056 2 3 tcp 1040 ------- 1 0.0 3.0 47 77
+ 1.0056 3 2 ack 40 ------- 1 3.0 0.0 47 112
- 1.0056 3 2 ack 40 ------- 1 3.0 0.0 47 112
r 1.0076 3 2 ack 40 ------- 1 3.0 0.0 46 110
+ 1.0076 2 0 ack 40 ------- 1 3.0 0.0 46 110
- 1.0076 2 0 ack 40 ------- 1 3.0 0.0 46 110
r 1.00936 2 0 ack 40 ------- 1 3.0 0.0 45 108
+ 1.00936 0 2 tcp 1040 ------- 1 0.0 3.0 65 113
- 1.00936 0 2 tcp 1040 ------- 1 0.0 3.0 65 113
- 1.01224 2 3 tcp 1040 ------- 1 0.0 3.0 50 83
r 1.01312 0 2 tcp 1040 ------- 1 0.0 3.0 64 111
+ 1.01312 2 3 tcp 1040 ------- 1 0.0 3.0 64 111
r 1.01392 2 3 tcp 1040 ------- 1 0.0 3.0 48 79
+ 1.01392 3 2 ack 40 ------- 1 3.0 0.0 48 114
- 1.01392 3 2 ack 40 ------- 1 3.0 0.0 48 114
r 1.01592 3 2 ack 40 ------- 1 3.0 0.0 47 112
+ 1.01592 2 0 ack 40 ------- 1 3.0 0.0 47 112
- 1.01592 2 0 ack 40 ------- 1 3.0 0.0 47 112
r 1.01768 2 0 ack 40 ------- 1 3.0 0.0 46 110
+ 1.01768 0 2 tcp 1040 ------- 1 0.0 3.0 66 115
- 1.01768 0 2 tcp 1040 ------- 1 0.0 3.0 66 115
- 1.02056 2 3 tcp 1040 ------- 1 0.0 3.0 51 85
r 1.02144 0 2 tcp 1040 ------- 1 0.0 3.0 65 113
+ 1.02144 2 3 tcp 1040 ------- 1 0.0 3.0 65 113